Program Version,EnergyPlus, Version 8.5.0-c87e61b44b, YMD=2017.11.14 22:56
1,5,Environment Title[],Latitude[deg],Longitude[deg],Time Zone[],Elevation[m]
2,6,Day of Simulation[],Month[],Day of Month[],DST Indicator[1=yes 0=no],Hour[],StartMinute[],EndMinute[],DayType
3,3,Cumulative Day of Simulation[],Month[],Day of Month[],DST Indicator[1=yes 0=no],DayType  ! When Daily Meters Requested
4,2,Cumulative Days of Simulation[],Month[]  ! When Monthly Meters Requested
5,1,Cumulative Days of Simulation[] ! When Run Period Meters Requested
9,1,Electricity:Facility [J] !TimeStep
715,1,DistrictCooling:Facility [J] !TimeStep
684,1,DistrictHeating:Facility [J] !TimeStep
End of Data Dictionary
1,MILANO-LINATE ANN CLG .4% CONDNS DB=>MWB,  45.62,   8.73,   1.00, 211.00
2,1, 7,21, 0, 1, 0.00,15.00,SummerDesignDay
9,74167648.3352966
684,0.0
715,66663927.3024928
2,1, 7,21, 0, 1,15.00,30.00,SummerDesignDay
9,74167648.3352966
684,0.0
715,65412601.3286037
2,1, 7,21, 0, 1,30.00,45.00,SummerDesignDay
9,74167648.3352966
684,0.0
715,63994297.1182412
2,1, 7,21, 0, 1,45.00,60.00,SummerDesignDay
9,74167648.3352966
684,0.0
715,62896279.8681271
2,1, 7,21, 0, 2, 0.00,15.00,SummerDesignDay
9,74167648.3352966
684,0.0
715,62268854.2575079
2,1, 7,21, 0, 2,15.00,30.00,SummerDesignDay
9,74167648.3352966
684,0.0
715,61832875.1631965
2,1, 7,21, 0, 2,30.00,45.00,SummerDesignDay
9,74167648.3352966
684,0.0
715,61451516.2265028
2,1, 7,21, 0, 2,45.00,60.00,SummerDesignDay
9,74167648.3352966
684,0.0
715,61088372.4792899
2,1, 7,21, 0, 3, 0.00,15.00,SummerDesignDay
9,74167648.3352966
684,0.0
715,60788220.1288235
2,1, 7,21, 0, 3,15.00,30.00,SummerDesignDay
9,74167648.3352966
684,0.0
715,60492463.2785424
2,1, 7,21, 0, 3,30.00,45.00,SummerDesignDay
9,74167648.3352966
684,0.0
715,60200606.0412804
2,1, 7,21, 0, 3,45.00,60.00,SummerDesignDay
9,74167648.3352966
684,0.0
715,59909549.9371989
2,1, 7,21, 0, 4, 0.00,15.00,SummerDesignDay
9,74167648.3352966
684,0.0
715,59620500.2279253
2,1, 7,21, 0, 4,15.00,30.00,SummerDesignDay
9,74167648.3352966
684,0.0
715,59341154.6027133
2,1, 7,21, 0, 4,30.00,45.00,SummerDesignDay
9,74167648.3352966
684,0.0
715,59001764.4523605
2,1, 7,21, 0, 4,45.00,60.00,SummerDesignDay
9,74167648.3352966
684,0.0
715,58629267.4263071
2,1, 7,21, 0, 5, 0.00,15.00,SummerDesignDay
9,74167648.3352966
684,0.0
715,58312712.8146302
2,1, 7,21, 0, 5,15.00,30.00,SummerDesignDay
9,74167648.3352966
684,0.0
715,57995133.7292288
2,1, 7,21, 0, 5,30.00,45.00,SummerDesignDay
9,74167648.3352966
684,0.0
715,57674119.4116045
2,1, 7,21, 0, 5,45.00,60.00,SummerDesignDay
9,74167648.3352966
684,0.0
715,57350611.5148161
2,1, 7,21, 0, 6, 0.00,15.00,SummerDesignDay
9,74167648.3352966
684,0.0
715,57740309.8472776
2,1, 7,21, 0, 6,15.00,30.00,SummerDesignDay
9,74167648.3352966
684,0.0
715,58835600.1338865
2,1, 7,21, 0, 6,30.00,45.00,SummerDesignDay
9,74167648.3352966
684,0.0
715,60317061.352011
2,1, 7,21, 0, 6,45.00,60.00,SummerDesignDay
9,74167648.3352966
684,0.0
715,61710179.7630064
2,1, 7,21, 0, 7, 0.00,15.00,SummerDesignDay
9,74167648.3352966
684,0.0
715,196120888.746578
2,1, 7,21, 0, 7,15.00,30.00,SummerDesignDay
9,74167648.3352966
684,0.0
715,99044748.2480049
2,1, 7,21, 0, 7,30.00,45.00,SummerDesignDay
9,74167648.3352966
684,0.0
715,182784514.6121
2,1, 7,21, 0, 7,45.00,60.00,SummerDesignDay
9,74167648.3352966
684,0.0
715,165430479.539266
2,1, 7,21, 0, 8, 0.00,15.00,SummerDesignDay
9,74167648.3352966
684,0.0
715,165615314.034213
2,1, 7,21, 0, 8,15.00,30.00,SummerDesignDay
9,74167648.3352966
684,0.0
715,167530887.864491
2,1, 7,21, 0, 8,30.00,45.00,SummerDesignDay
9,74167648.3352966
684,0.0
715,170452412.479571
2,1, 7,21, 0, 8,45.00,60.00,SummerDesignDay
9,74167648.3352966
684,0.0
715,173251541.842919
2,1, 7,21, 0, 9, 0.00,15.00,SummerDesignDay
9,74167648.3352966
684,0.0
715,176303183.158667
2,1, 7,21, 0, 9,15.00,30.00,SummerDesignDay
9,74167648.3352966
684,0.0
715,179211837.587157
2,1, 7,21, 0, 9,30.00,45.00,SummerDesignDay
9,74167648.3352966
684,0.0
715,182066875.323978
2,1, 7,21, 0, 9,45.00,60.00,SummerDesignDay
9,74167648.3352966
684,0.0
715,184868444.409714
2,1, 7,21, 0,10, 0.00,15.00,SummerDesignDay
9,74167648.3352966
684,0.0
715,187229424.476952
2,1, 7,21, 0,10,15.00,30.00,SummerDesignDay
9,74167648.3352966
684,0.0
715,189196024.795629
2,1, 7,21, 0,10,30.00,45.00,SummerDesignDay
9,74167648.3352966
684,0.0
715,191190975.486448
2,1, 7,21, 0,10,45.00,60.00,SummerDesignDay
9,74167648.3352966
684,0.0
715,193225281.162212
2,1, 7,21, 0,11, 0.00,15.00,SummerDesignDay
9,74167648.3352966
684,0.0
715,194670771.734017
2,1, 7,21, 0,11,15.00,30.00,SummerDesignDay
9,74167648.3352966
684,0.0
715,195826449.32835
2,1, 7,21, 0,11,30.00,45.00,SummerDesignDay
9,74167648.3352966
684,0.0
715,197185974.814218
2,1, 7,21, 0,11,45.00,60.00,SummerDesignDay
9,74167648.3352966
684,0.0
715,198698780.680982
2,1, 7,21, 0,12, 0.00,15.00,SummerDesignDay
9,74167648.3352966
684,0.0
715,199813055.928365
2,1, 7,21, 0,12,15.00,30.00,SummerDesignDay
9,74167648.3352966
684,0.0
715,201255628.243662
2,1, 7,21, 0,12,30.00,45.00,SummerDesignDay
9,74167648.3352966
684,0.0
715,202830962.741736
2,1, 7,21, 0,12,45.00,60.00,SummerDesignDay
9,74167648.3352966
684,0.0
715,204444697.020263
2,1, 7,21, 0,13, 0.00,15.00,SummerDesignDay
9,74167648.3352966
684,0.0
715,205746487.103808
2,1, 7,21, 0,13,15.00,30.00,SummerDesignDay
9,74167648.3352966
684,0.0
715,207085858.984926
2,1, 7,21, 0,13,30.00,45.00,SummerDesignDay
9,74167648.3352966
684,0.0
715,208452454.428826
2,1, 7,21, 0,13,45.00,60.00,SummerDesignDay
9,74167648.3352966
684,0.0
715,209827032.817738
2,1, 7,21, 0,14, 0.00,15.00,SummerDesignDay
9,74167648.3352966
684,0.0
715,210647356.87537
2,1, 7,21, 0,14,15.00,30.00,SummerDesignDay
9,74167648.3352966
684,0.0
715,211509256.935931
2,1, 7,21, 0,14,30.00,45.00,SummerDesignDay
9,74167648.3352966
684,0.0
715,212404513.897626
2,1, 7,21, 0,14,45.00,60.00,SummerDesignDay
9,74167648.3352966
684,0.0
715,213363748.642758
2,1, 7,21, 0,15, 0.00,15.00,SummerDesignDay
9,74167648.3352966
684,0.0
715,213870756.998153
2,1, 7,21, 0,15,15.00,30.00,SummerDesignDay
9,74167648.3352966
684,0.0
715,214579513.198104
2,1, 7,21, 0,15,30.00,45.00,SummerDesignDay
9,74167648.3352966
684,0.0
715,215407989.194364
2,1, 7,21, 0,15,45.00,60.00,SummerDesignDay
9,74167648.3352966
684,0.0
715,216302774.891138
2,1, 7,21, 0,16, 0.00,15.00,SummerDesignDay
9,74167648.3352966
684,0.0
715,216238282.940248
2,1, 7,21, 0,16,15.00,30.00,SummerDesignDay
9,74167648.3352966
684,0.0
715,216223998.708709
2,1, 7,21, 0,16,30.00,45.00,SummerDesignDay
9,74167648.3352966
684,0.0
715,216232322.909926
2,1, 7,21, 0,16,45.00,60.00,SummerDesignDay
9,74167648.3352966
684,0.0
715,216199999.994866
2,1, 7,21, 0,17, 0.00,15.00,SummerDesignDay
9,74167648.3352966
684,0.0
715,215775826.119587
2,1, 7,21, 0,17,15.00,30.00,SummerDesignDay
9,74167648.3352966
684,0.0
715,215280064.879646
2,1, 7,21, 0,17,30.00,45.00,SummerDesignDay
9,74167648.3352966
684,0.0
715,214702841.325204
2,1, 7,21, 0,17,45.00,60.00,SummerDesignDay
9,74167648.3352966
684,0.0
715,214015201.420086
2,1, 7,21, 0,18, 0.00,15.00,SummerDesignDay
9,74167648.3352966
684,0.0
715,212737126.788887
2,1, 7,21, 0,18,15.00,30.00,SummerDesignDay
9,74167648.3352966
684,0.0
715,211480577.376073
2,1, 7,21, 0,18,30.00,45.00,SummerDesignDay
9,74167648.3352966
684,0.0
715,210178929.862152
2,1, 7,21, 0,18,45.00,60.00,SummerDesignDay
9,74167648.3352966
684,0.0
715,208750949.345147
2,1, 7,21, 0,19, 0.00,15.00,SummerDesignDay
9,74167648.3352966
684,0.0
715,206333380.048
2,1, 7,21, 0,19,15.00,30.00,SummerDesignDay
9,74167648.3352966
684,0.0
715,203775954.610399
2,1, 7,21, 0,19,30.00,45.00,SummerDesignDay
9,74167648.3352966
684,0.0
715,201038019.730716
2,1, 7,21, 0,19,45.00,60.00,SummerDesignDay
9,74167648.3352966
684,0.0
715,197794467.919857
2,1, 7,21, 0,20, 0.00,15.00,SummerDesignDay
9,74167648.3352966
684,0.0
715,195115435.525213
2,1, 7,21, 0,20,15.00,30.00,SummerDesignDay
9,74167648.3352966
684,0.0
715,192101742.53647
2,1, 7,21, 0,20,30.00,45.00,SummerDesignDay
9,74167648.3352966
684,0.0
715,188982302.589227
2,1, 7,21, 0,20,45.00,60.00,SummerDesignDay
9,74167648.3352966
684,0.0
715,185889332.381726
2,1, 7,21, 0,21, 0.00,15.00,SummerDesignDay
9,74167648.3352966
684,0.0
715,183662746.56606
2,1, 7,21, 0,21,15.00,30.00,SummerDesignDay
9,74167648.3352966
684,0.0
715,181711587.166763
2,1, 7,21, 0,21,30.00,45.00,SummerDesignDay
9,74167648.3352966
684,0.0
715,179840554.605159
2,1, 7,21, 0,21,45.00,60.00,SummerDesignDay
9,74167648.3352966
684,0.0
715,178388406.335016
2,1, 7,21, 0,22, 0.00,15.00,SummerDesignDay
9,74167648.3352966
684,0.0
715,176902544.611184
2,1, 7,21, 0,22,15.00,30.00,SummerDesignDay
9,74167648.3352966
684,0.0
715,175324214.927964
2,1, 7,21, 0,22,30.00,45.00,SummerDesignDay
9,74167648.3352966
684,0.0
715,173660630.702149
2,1, 7,21, 0,22,45.00,60.00,SummerDesignDay
9,74167648.3352966
684,0.0
715,171863714.675726
2,1, 7,21, 0,23, 0.00,15.00,SummerDesignDay
9,74167648.3352966
684,0.0
715,43174949.9522837
2,1, 7,21, 0,23,15.00,30.00,SummerDesignDay
9,74167648.3352966
684,0.0
715,60143400.5484842
2,1, 7,21, 0,23,30.00,45.00,SummerDesignDay
9,74167648.3352966
684,0.0
715,66851423.063496
2,1, 7,21, 0,23,45.00,60.00,SummerDesignDay
9,74167648.3352966
684,0.0
715,72623644.2107263
2,1, 7,21, 0,24, 0.00,15.00,SummerDesignDay
9,74167648.3352966
684,0.0
715,73962682.0750514
2,1, 7,21, 0,24,15.00,30.00,SummerDesignDay
9,74167648.3352966
684,0.0
715,69009221.3027232
2,1, 7,21, 0,24,30.00,45.00,SummerDesignDay
9,74167648.3352966
684,0.0
715,68220526.9650123
2,1, 7,21, 0,24,45.00,60.00,SummerDesignDay
9,74167648.3352966
684,0.0
715,67488603.1272997
1,MILANO-LINATE ANN CLG .4% CONDNS DP=>MDB,  45.62,   8.73,   1.00, 211.00
2,1, 7,21, 0, 1, 0.00,15.00,SummerDesignDay
9,74167648.3352966
684,0.0
715,52698243.8024296
2,1, 7,21, 0, 1,15.00,30.00,SummerDesignDay
9,74167648.3352966
684,0.0
715,51529653.9505396
2,1, 7,21, 0, 1,30.00,45.00,SummerDesignDay
9,74167648.3352966
684,0.0
715,50301241.5952142
2,1, 7,21, 0, 1,45.00,60.00,SummerDesignDay
9,74167648.3352966
684,0.0
715,48945720.5253296
2,1, 7,21, 0, 2, 0.00,15.00,SummerDesignDay
9,74167648.3352966
684,0.0
715,47991788.1936087
2,1, 7,21, 0, 2,15.00,30.00,SummerDesignDay
9,74167648.3352966
684,0.0
715,47170118.0998797
2,1, 7,21, 0, 2,30.00,45.00,SummerDesignDay
9,74167648.3352966
684,0.0
715,46454346.4554519
2,1, 7,21, 0, 2,45.00,60.00,SummerDesignDay
9,74167648.3352966
684,0.0
715,45807929.3841242
2,1, 7,21, 0, 3, 0.00,15.00,SummerDesignDay
9,74167648.3352966
684,0.0
715,45253922.8443656
2,1, 7,21, 0, 3,15.00,30.00,SummerDesignDay
9,74167648.3352966
684,0.0
715,44739594.2782288
2,1, 7,21, 0, 3,30.00,45.00,SummerDesignDay
9,74167648.3352966
684,0.0
715,44256901.9243945
2,1, 7,21, 0, 3,45.00,60.00,SummerDesignDay
9,74167648.3352966
684,0.0
715,43796292.6423354
2,1, 7,21, 0, 4, 0.00,15.00,SummerDesignDay
9,74167648.3352966
684,0.0
715,43349666.6280757
2,1, 7,21, 0, 4,15.00,30.00,SummerDesignDay
9,74167648.3352966
684,0.0
715,42915058.2963238
2,1, 7,21, 0, 4,30.00,45.00,SummerDesignDay
9,74167648.3352966
684,0.0
715,42489938.7393566
2,1, 7,21, 0, 4,45.00,60.00,SummerDesignDay
9,74167648.3352966
684,0.0
715,42072533.7894186
2,1, 7,21, 0, 5, 0.00,15.00,SummerDesignDay
9,74167648.3352966
684,0.0
715,41707641.5755758
2,1, 7,21, 0, 5,15.00,30.00,SummerDesignDay
9,74167648.3352966
684,0.0
715,41353202.1243599
2,1, 7,21, 0, 5,30.00,45.00,SummerDesignDay
9,74167648.3352966
684,0.0
715,41004566.4293471
2,1, 7,21, 0, 5,45.00,60.00,SummerDesignDay
9,74167648.3352966
684,0.0
715,40660483.1632247
2,1, 7,21, 0, 6, 0.00,15.00,SummerDesignDay
9,74167648.3352966
684,0.0
715,40776383.9515641
2,1, 7,21, 0, 6,15.00,30.00,SummerDesignDay
9,74167648.3352966
684,0.0
715,41314597.8644059
2,1, 7,21, 0, 6,30.00,45.00,SummerDesignDay
9,74167648.3352966
684,0.0
715,42119308.8437749
2,1, 7,21, 0, 6,45.00,60.00,SummerDesignDay
9,74167648.3352966
684,0.0
715,42930565.2178916
2,1, 7,21, 0, 7, 0.00,15.00,SummerDesignDay
9,74167648.3352966
684,0.0
715,164017973.901311
2,1, 7,21, 0, 7,15.00,30.00,SummerDesignDay
9,74167648.3352966
684,0.0
715,55246603.0852679
2,1, 7,21, 0, 7,30.00,45.00,SummerDesignDay
9,74167648.3352966
684,0.0
715,138655575.723546
2,1, 7,21, 0, 7,45.00,60.00,SummerDesignDay
9,74167648.3352966
684,0.0
715,121613751.760835
2,1, 7,21, 0, 8, 0.00,15.00,SummerDesignDay
9,74167648.3352966
684,0.0
715,123434415.338837
2,1, 7,21, 0, 8,15.00,30.00,SummerDesignDay
9,74167648.3352966
684,0.0
715,126395147.714856
2,1, 7,21, 0, 8,30.00,45.00,SummerDesignDay
9,74167648.3352966
684,0.0
715,130558218.550028
2,1, 7,21, 0, 8,45.00,60.00,SummerDesignDay
9,74167648.3352966
684,0.0
715,134896740.046003
2,1, 7,21, 0, 9, 0.00,15.00,SummerDesignDay
9,74167648.3352966
684,0.0
715,139633016.519661
2,1, 7,21, 0, 9,15.00,30.00,SummerDesignDay
9,74167648.3352966
684,0.0
715,144340357.308861
2,1, 7,21, 0, 9,30.00,45.00,SummerDesignDay
9,74167648.3352966
684,0.0
715,149093648.540778
2,1, 7,21, 0, 9,45.00,60.00,SummerDesignDay
9,74167648.3352966
684,0.0
715,154722099.522942
2,1, 7,21, 0,10, 0.00,15.00,SummerDesignDay
9,74167648.3352966
684,0.0
715,160107902.447727
2,1, 7,21, 0,10,15.00,30.00,SummerDesignDay
9,74167648.3352966
684,0.0
715,165528199.711061
2,1, 7,21, 0,10,30.00,45.00,SummerDesignDay
9,74167648.3352966
684,0.0
715,171150694.404388
2,1, 7,21, 0,10,45.00,60.00,SummerDesignDay
9,74167648.3352966
684,0.0
715,175171258.991168
2,1, 7,21, 0,11, 0.00,15.00,SummerDesignDay
9,74167648.3352966
684,0.0
715,177644432.032476
2,1, 7,21, 0,11,15.00,30.00,SummerDesignDay
9,74167648.3352966
684,0.0
715,179600800.504423
2,1, 7,21, 0,11,30.00,45.00,SummerDesignDay
9,74167648.3352966
684,0.0
715,181416614.612162
2,1, 7,21, 0,11,45.00,60.00,SummerDesignDay
9,74167648.3352966
684,0.0
715,183181386.497362
2,1, 7,21, 0,12, 0.00,15.00,SummerDesignDay
9,74167648.3352966
684,0.0
715,184268107.770792
2,1, 7,21, 0,12,15.00,30.00,SummerDesignDay
9,74167648.3352966
684,0.0
715,185702517.284252
2,1, 7,21, 0,12,30.00,45.00,SummerDesignDay
9,74167648.3352966
684,0.0
715,187294243.963406
2,1, 7,21, 0,12,45.00,60.00,SummerDesignDay
9,74167648.3352966
684,0.0
715,188921586.958912
2,1, 7,21, 0,13, 0.00,15.00,SummerDesignDay
9,74167648.3352966
684,0.0
715,190175271.948962
2,1, 7,21, 0,13,15.00,30.00,SummerDesignDay
9,74167648.3352966
684,0.0
715,191468440.964467
2,1, 7,21, 0,13,30.00,45.00,SummerDesignDay
9,74167648.3352966
684,0.0
715,192799167.804301
2,1, 7,21, 0,13,45.00,60.00,SummerDesignDay
9,74167648.3352966
684,0.0
715,194142712.20347
2,1, 7,21, 0,14, 0.00,15.00,SummerDesignDay
9,74167648.3352966
684,0.0
715,194929207.466121
2,1, 7,21, 0,14,15.00,30.00,SummerDesignDay
9,74167648.3352966
684,0.0
715,195767365.534537
2,1, 7,21, 0,14,30.00,45.00,SummerDesignDay
9,74167648.3352966
684,0.0
715,196645596.100358
2,1, 7,21, 0,14,45.00,60.00,SummerDesignDay
9,74167648.3352966
684,0.0
715,197594948.159512
2,1, 7,21, 0,15, 0.00,15.00,SummerDesignDay
9,74167648.3352966
684,0.0
715,198011464.908657
2,1, 7,21, 0,15,15.00,30.00,SummerDesignDay
9,74167648.3352966
684,0.0
715,198674610.803793
2,1, 7,21, 0,15,30.00,45.00,SummerDesignDay
9,74167648.3352966
684,0.0
715,199484554.309921
2,1, 7,21, 0,15,45.00,60.00,SummerDesignDay
9,74167648.3352966
684,0.0
715,200362547.566381
2,1, 7,21, 0,16, 0.00,15.00,SummerDesignDay
9,74167648.3352966
684,0.0
715,200146401.212156
2,1, 7,21, 0,16,15.00,30.00,SummerDesignDay
9,74167648.3352966
684,0.0
715,200021168.330467
2,1, 7,21, 0,16,30.00,45.00,SummerDesignDay
9,74167648.3352966
684,0.0
715,199961016.076348
2,1, 7,21, 0,16,45.00,60.00,SummerDesignDay
9,74167648.3352966
684,0.0
715,199885377.970667
2,1, 7,21, 0,17, 0.00,15.00,SummerDesignDay
9,74167648.3352966
684,0.0
715,199383118.718156
2,1, 7,21, 0,17,15.00,30.00,SummerDesignDay
9,74167648.3352966
684,0.0
715,198838566.74005
2,1, 7,21, 0,17,30.00,45.00,SummerDesignDay
9,74167648.3352966
684,0.0
715,198230258.517462
2,1, 7,21, 0,17,45.00,60.00,SummerDesignDay
9,74167648.3352966
684,0.0
715,197527976.784864
2,1, 7,21, 0,18, 0.00,15.00,SummerDesignDay
9,74167648.3352966
684,0.0
715,196208013.650038
2,1, 7,21, 0,18,15.00,30.00,SummerDesignDay
9,74167648.3352966
684,0.0
715,194929496.945485
2,1, 7,21, 0,18,30.00,45.00,SummerDesignDay
9,74167648.3352966
684,0.0
715,193631562.507826
2,1, 7,21, 0,18,45.00,60.00,SummerDesignDay
9,74167648.3352966
684,0.0
715,192220105.50961
2,1, 7,21, 0,19, 0.00,15.00,SummerDesignDay
9,74167648.3352966
684,0.0
715,189729871.895739
2,1, 7,21, 0,19,15.00,30.00,SummerDesignDay
9,74167648.3352966
684,0.0
715,187130347.083351
2,1, 7,21, 0,19,30.00,45.00,SummerDesignDay
9,74167648.3352966
684,0.0
715,184356369.389606
2,1, 7,21, 0,19,45.00,60.00,SummerDesignDay
9,74167648.3352966
684,0.0
715,181069018.325176
2,1, 7,21, 0,20, 0.00,15.00,SummerDesignDay
9,74167648.3352966
684,0.0
715,178420421.833225
2,1, 7,21, 0,20,15.00,30.00,SummerDesignDay
9,74167648.3352966
684,0.0
715,175393315.233988
2,1, 7,21, 0,20,30.00,45.00,SummerDesignDay
9,74167648.3352966
684,0.0
715,172172990.418502
2,1, 7,21, 0,20,45.00,60.00,SummerDesignDay
9,74167648.3352966
684,0.0
715,169058431.640964
2,1, 7,21, 0,21, 0.00,15.00,SummerDesignDay
9,74167648.3352966
684,0.0
715,166584113.798994
2,1, 7,21, 0,21,15.00,30.00,SummerDesignDay
9,74167648.3352966
684,0.0
715,163798357.835555
2,1, 7,21, 0,21,30.00,45.00,SummerDesignDay
9,74167648.3352966
684,0.0
715,160668447.815301
2,1, 7,21, 0,21,45.00,60.00,SummerDesignDay
9,74167648.3352966
684,0.0
715,157394379.876049
2,1, 7,21, 0,22, 0.00,15.00,SummerDesignDay
9,74167648.3352966
684,0.0
715,154086164.741141
2,1, 7,21, 0,22,15.00,30.00,SummerDesignDay
9,74167648.3352966
684,0.0
715,150773786.977334
2,1, 7,21, 0,22,30.00,45.00,SummerDesignDay
9,74167648.3352966
684,0.0
715,147466366.510067
2,1, 7,21, 0,22,45.00,60.00,SummerDesignDay
9,74167648.3352966
684,0.0
715,144170467.018046
2,1, 7,21, 0,23, 0.00,15.00,SummerDesignDay
9,74167648.3352966
684,0.0
715,33176566.4445618
2,1, 7,21, 0,23,15.00,30.00,SummerDesignDay
9,74167648.3352966
684,0.0
715,48222101.2893248
2,1, 7,21, 0,23,30.00,45.00,SummerDesignDay
9,74167648.3352966
684,0.0
715,54025420.2958975
2,1, 7,21, 0,23,45.00,60.00,SummerDesignDay
9,74167648.3352966
684,0.0
715,57224527.9773938
2,1, 7,21, 0,24, 0.00,15.00,SummerDesignDay
9,74167648.3352966
684,0.0
715,57423605.8241714
2,1, 7,21, 0,24,15.00,30.00,SummerDesignDay
9,74167648.3352966
684,0.0
715,56307584.0579632
2,1, 7,21, 0,24,30.00,45.00,SummerDesignDay
9,74167648.3352966
684,0.0
715,54107025.546409
2,1, 7,21, 0,24,45.00,60.00,SummerDesignDay
9,74167648.3352966
684,0.0
715,52877515.1117706
1,MILANO-LINATE ANN CLG .4% CONDNS ENTH=>MDB,  45.62,   8.73,   1.00, 211.00
2,1, 7,21, 0, 1, 0.00,15.00,SummerDesignDay
9,74167648.3352966
684,0.0
715,63612499.5115724
2,1, 7,21, 0, 1,15.00,30.00,SummerDesignDay
9,74167648.3352966
684,0.0
715,62127999.6610464
2,1, 7,21, 0, 1,30.00,45.00,SummerDesignDay
9,74167648.3352966
684,0.0
715,60556217.9808729
2,1, 7,21, 0, 1,45.00,60.00,SummerDesignDay
9,74167648.3352966
684,0.0
715,59174343.9984072
2,1, 7,21, 0, 2, 0.00,15.00,SummerDesignDay
9,74167648.3352966
684,0.0
715,57917947.9080673
2,1, 7,21, 0, 2,15.00,30.00,SummerDesignDay
9,74167648.3352966
684,0.0
715,56956778.7964494
2,1, 7,21, 0, 2,30.00,45.00,SummerDesignDay
9,74167648.3352966
684,0.0
715,56088099.5997116
2,1, 7,21, 0, 2,45.00,60.00,SummerDesignDay
9,74167648.3352966
684,0.0
715,55295508.9547511
2,1, 7,21, 0, 3, 0.00,15.00,SummerDesignDay
9,74167648.3352966
684,0.0
715,54622129.2127561
2,1, 7,21, 0, 3,15.00,30.00,SummerDesignDay
9,74167648.3352966
684,0.0
715,53995353.0506782
2,1, 7,21, 0, 3,30.00,45.00,SummerDesignDay
9,74167648.3352966
684,0.0
715,53407344.7120743
2,1, 7,21, 0, 3,45.00,60.00,SummerDesignDay
9,74167648.3352966
684,0.0
715,52981202.7339155
2,1, 7,21, 0, 4, 0.00,15.00,SummerDesignDay
9,74167648.3352966
684,0.0
715,52580377.8265722
2,1, 7,21, 0, 4,15.00,30.00,SummerDesignDay
9,74167648.3352966
684,0.0
715,52148754.9260156
2,1, 7,21, 0, 4,30.00,45.00,SummerDesignDay
9,74167648.3352966
684,0.0
715,51723801.7549617
2,1, 7,21, 0, 4,45.00,60.00,SummerDesignDay
9,74167648.3352966
684,0.0
715,51317035.2640233
2,1, 7,21, 0, 5, 0.00,15.00,SummerDesignDay
9,74167648.3352966
684,0.0
715,50967949.4841297
2,1, 7,21, 0, 5,15.00,30.00,SummerDesignDay
9,74167648.3352966
684,0.0
715,50631821.4287156
2,1, 7,21, 0, 5,30.00,45.00,SummerDesignDay
9,74167648.3352966
684,0.0
715,50305624.8464445
2,1, 7,21, 0, 5,45.00,60.00,SummerDesignDay
9,74167648.3352966
684,0.0
715,49986864.9717514
2,1, 7,21, 0, 6, 0.00,15.00,SummerDesignDay
9,74167648.3352966
684,0.0
715,50098799.9829631
2,1, 7,21, 0, 6,15.00,30.00,SummerDesignDay
9,74167648.3352966
684,0.0
715,50594881.5676356
2,1, 7,21, 0, 6,30.00,45.00,SummerDesignDay
9,74167648.3352966
684,0.0
715,51524609.5942235
2,1, 7,21, 0, 6,45.00,60.00,SummerDesignDay
9,74167648.3352966
684,0.0
715,54445046.37935
2,1, 7,21, 0, 7, 0.00,15.00,SummerDesignDay
9,74167648.3352966
684,0.0
715,198368607.413595
2,1, 7,21, 0, 7,15.00,30.00,SummerDesignDay
9,74167648.3352966
684,0.0
715,83144305.3333443
2,1, 7,21, 0, 7,30.00,45.00,SummerDesignDay
9,74167648.3352966
684,0.0
715,173746413.845537
2,1, 7,21, 0, 7,45.00,60.00,SummerDesignDay
9,74167648.3352966
684,0.0
715,153531757.411648
2,1, 7,21, 0, 8, 0.00,15.00,SummerDesignDay
9,74167648.3352966
684,0.0
715,154343707.247238
2,1, 7,21, 0, 8,15.00,30.00,SummerDesignDay
9,74167648.3352966
684,0.0
715,157523044.219301
2,1, 7,21, 0, 8,30.00,45.00,SummerDesignDay
9,74167648.3352966
684,0.0
715,162351042.814149
2,1, 7,21, 0, 8,45.00,60.00,SummerDesignDay
9,74167648.3352966
684,0.0
715,167358834.944008
2,1, 7,21, 0, 9, 0.00,15.00,SummerDesignDay
9,74167648.3352966
684,0.0
715,172743281.293159
2,1, 7,21, 0, 9,15.00,30.00,SummerDesignDay
9,74167648.3352966
684,0.0
715,178409343.961913
2,1, 7,21, 0, 9,30.00,45.00,SummerDesignDay
9,74167648.3352966
684,0.0
715,185651229.06547
2,1, 7,21, 0, 9,45.00,60.00,SummerDesignDay
9,74167648.3352966
684,0.0
715,192860862.059233
2,1, 7,21, 0,10, 0.00,15.00,SummerDesignDay
9,74167648.3352966
684,0.0
715,199339792.869387
2,1, 7,21, 0,10,15.00,30.00,SummerDesignDay
9,74167648.3352966
684,0.0
715,205458018.792059
2,1, 7,21, 0,10,30.00,45.00,SummerDesignDay
9,74167648.3352966
684,0.0
715,211390363.323495
2,1, 7,21, 0,10,45.00,60.00,SummerDesignDay
9,74167648.3352966
684,0.0
715,217286812.96176
2,1, 7,21, 0,11, 0.00,15.00,SummerDesignDay
9,74167648.3352966
684,0.0
715,222783440.351161
2,1, 7,21, 0,11,15.00,30.00,SummerDesignDay
9,74167648.3352966
684,0.0
715,228190532.494589
2,1, 7,21, 0,11,30.00,45.00,SummerDesignDay
9,74167648.3352966
684,0.0
715,233581068.28584
2,1, 7,21, 0,11,45.00,60.00,SummerDesignDay
9,74167648.3352966
684,0.0
715,239004523.559368
2,1, 7,21, 0,12, 0.00,15.00,SummerDesignDay
9,74167648.3352966
684,0.0
715,243715252.031157
2,1, 7,21, 0,12,15.00,30.00,SummerDesignDay
9,74167648.3352966
684,0.0
715,248377799.318674
2,1, 7,21, 0,12,30.00,45.00,SummerDesignDay
9,74167648.3352966
684,0.0
715,252851207.670371
2,1, 7,21, 0,12,45.00,60.00,SummerDesignDay
9,74167648.3352966
684,0.0
715,257238917.571676
2,1, 7,21, 0,13, 0.00,15.00,SummerDesignDay
9,74167648.3352966
684,0.0
715,261163731.456681
2,1, 7,21, 0,13,15.00,30.00,SummerDesignDay
9,74167648.3352966
684,0.0
715,264935177.210769
2,1, 7,21, 0,13,30.00,45.00,SummerDesignDay
9,74167648.3352966
684,0.0
715,268590825.015788
2,1, 7,21, 0,13,45.00,60.00,SummerDesignDay
9,74167648.3352966
684,0.0
715,272220302.793922
2,1, 7,21, 0,14, 0.00,15.00,SummerDesignDay
9,74167648.3352966
684,0.0
715,275162101.38174
2,1, 7,21, 0,14,15.00,30.00,SummerDesignDay
9,74167648.3352966
684,0.0
715,277835811.844676
2,1, 7,21, 0,14,30.00,45.00,SummerDesignDay
9,74167648.3352966
684,0.0
715,280300699.653376
2,1, 7,21, 0,14,45.00,60.00,SummerDesignDay
9,74167648.3352966
684,0.0
715,282763765.623727
2,1, 7,21, 0,15, 0.00,15.00,SummerDesignDay
9,74167648.3352966
684,0.0
715,284506083.609643
2,1, 7,21, 0,15,15.00,30.00,SummerDesignDay
9,74167648.3352966
684,0.0
715,285941920.953259
2,1, 7,21, 0,15,30.00,45.00,SummerDesignDay
9,74167648.3352966
684,0.0
715,287076000.649753
2,1, 7,21, 0,15,45.00,60.00,SummerDesignDay
9,74167648.3352966
684,0.0
715,288104376.627922
2,1, 7,21, 0,16, 0.00,15.00,SummerDesignDay
9,74167648.3352966
684,0.0
715,287652985.180086
2,1, 7,21, 0,16,15.00,30.00,SummerDesignDay
9,74167648.3352966
684,0.0
715,286591493.13633
2,1, 7,21, 0,16,30.00,45.00,SummerDesignDay
9,74167648.3352966
684,0.0
715,285069020.184332
2,1, 7,21, 0,16,45.00,60.00,SummerDesignDay
9,74167648.3352966
684,0.0
715,283336508.988302
2,1, 7,21, 0,17, 0.00,15.00,SummerDesignDay
9,74167648.3352966
684,0.0
715,281045120.238399
2,1, 7,21, 0,17,15.00,30.00,SummerDesignDay
9,74167648.3352966
684,0.0
715,278489012.774951
2,1, 7,21, 0,17,30.00,45.00,SummerDesignDay
9,74167648.3352966
684,0.0
715,275707989.050166
2,1, 7,21, 0,17,45.00,60.00,SummerDesignDay
9,74167648.3352966
684,0.0
715,272780419.849642
2,1, 7,21, 0,18, 0.00,15.00,SummerDesignDay
9,74167648.3352966
684,0.0
715,269107996.297616
2,1, 7,21, 0,18,15.00,30.00,SummerDesignDay
9,74167648.3352966
684,0.0
715,265341014.512208
2,1, 7,21, 0,18,30.00,45.00,SummerDesignDay
9,74167648.3352966
684,0.0
715,261440578.383554
2,1, 7,21, 0,18,45.00,60.00,SummerDesignDay
9,74167648.3352966
684,0.0
715,257397449.785062
2,1, 7,21, 0,19, 0.00,15.00,SummerDesignDay
9,74167648.3352966
684,0.0
715,252090680.119477
2,1, 7,21, 0,19,15.00,30.00,SummerDesignDay
9,74167648.3352966
684,0.0
715,246234563.695687
2,1, 7,21, 0,19,30.00,45.00,SummerDesignDay
9,74167648.3352966
684,0.0
715,239922986.605855
2,1, 7,21, 0,19,45.00,60.00,SummerDesignDay
9,74167648.3352966
684,0.0
715,233022191.248014
2,1, 7,21, 0,20, 0.00,15.00,SummerDesignDay
9,74167648.3352966
684,0.0
715,226973786.568511
2,1, 7,21, 0,20,15.00,30.00,SummerDesignDay
9,74167648.3352966
684,0.0
715,220904383.083513
2,1, 7,21, 0,20,30.00,45.00,SummerDesignDay
9,74167648.3352966
684,0.0
715,215076120.02719
2,1, 7,21, 0,20,45.00,60.00,SummerDesignDay
9,74167648.3352966
684,0.0
715,209629055.126639
2,1, 7,21, 0,21, 0.00,15.00,SummerDesignDay
9,74167648.3352966
684,0.0
715,205246949.716185
2,1, 7,21, 0,21,15.00,30.00,SummerDesignDay
9,74167648.3352966
684,0.0
715,201369383.546652
2,1, 7,21, 0,21,30.00,45.00,SummerDesignDay
9,74167648.3352966
684,0.0
715,197695975.6739
2,1, 7,21, 0,21,45.00,60.00,SummerDesignDay
9,74167648.3352966
684,0.0
715,194078695.08124
2,1, 7,21, 0,22, 0.00,15.00,SummerDesignDay
9,74167648.3352966
684,0.0
715,190481647.748891
2,1, 7,21, 0,22,15.00,30.00,SummerDesignDay
9,74167648.3352966
684,0.0
715,186908393.585108
2,1, 7,21, 0,22,30.00,45.00,SummerDesignDay
9,74167648.3352966
684,0.0
715,183343321.32699
2,1, 7,21, 0,22,45.00,60.00,SummerDesignDay
9,74167648.3352966
684,0.0
715,179804082.299004
2,1, 7,21, 0,23, 0.00,15.00,SummerDesignDay
9,74167648.3352966
684,0.0
715,42824526.1235539
2,1, 7,21, 0,23,15.00,30.00,SummerDesignDay
9,74167648.3352966
684,0.0
715,59049732.7251954
2,1, 7,21, 0,23,30.00,45.00,SummerDesignDay
9,74167648.3352966
684,0.0
715,65341948.400801
2,1, 7,21, 0,23,45.00,60.00,SummerDesignDay
9,74167648.3352966
684,0.0
715,67931162.9996697
2,1, 7,21, 0,24, 0.00,15.00,SummerDesignDay
9,74167648.3352966
684,0.0
715,69527440.3935458
2,1, 7,21, 0,24,15.00,30.00,SummerDesignDay
9,74167648.3352966
684,0.0
715,68078771.0714402
2,1, 7,21, 0,24,30.00,45.00,SummerDesignDay
9,74167648.3352966
684,0.0
715,65186667.8812667
2,1, 7,21, 0,24,45.00,60.00,SummerDesignDay
9,74167648.3352966
684,0.0
715,64355758.3216052
1,MILANO-LINATE ANN CLG .4% CONDNS WB=>MDB,  45.62,   8.73,   1.00, 211.00
2,1, 7,21, 0, 1, 0.00,15.00,SummerDesignDay
9,74167648.3352966
684,0.0
715,63263431.1683128
2,1, 7,21, 0, 1,15.00,30.00,SummerDesignDay
9,74167648.3352966
684,0.0
715,61842332.0432761
2,1, 7,21, 0, 1,30.00,45.00,SummerDesignDay
9,74167648.3352966
684,0.0
715,60306856.8333921
2,1, 7,21, 0, 1,45.00,60.00,SummerDesignDay
9,74167648.3352966
684,0.0
715,58631634.1088822
2,1, 7,21, 0, 2, 0.00,15.00,SummerDesignDay
9,74167648.3352966
684,0.0
715,57451669.0267905
2,1, 7,21, 0, 2,15.00,30.00,SummerDesignDay
9,74167648.3352966
684,0.0
715,56551562.4861359
2,1, 7,21, 0, 2,30.00,45.00,SummerDesignDay
9,74167648.3352966
684,0.0
715,55738323.4061721
2,1, 7,21, 0, 2,45.00,60.00,SummerDesignDay
9,74167648.3352966
684,0.0
715,54996022.6078617
2,1, 7,21, 0, 3, 0.00,15.00,SummerDesignDay
9,74167648.3352966
684,0.0
715,54359840.2514631
2,1, 7,21, 0, 3,15.00,30.00,SummerDesignDay
9,74167648.3352966
684,0.0
715,53761105.7612188
2,1, 7,21, 0, 3,30.00,45.00,SummerDesignDay
9,74167648.3352966
684,0.0
715,53218959.9782899
2,1, 7,21, 0, 3,45.00,60.00,SummerDesignDay
9,74167648.3352966
684,0.0
715,52805878.3095233
2,1, 7,21, 0, 4, 0.00,15.00,SummerDesignDay
9,74167648.3352966
684,0.0
715,52415540.0417697
2,1, 7,21, 0, 4,15.00,30.00,SummerDesignDay
9,74167648.3352966
684,0.0
715,51984923.3924753
2,1, 7,21, 0, 4,30.00,45.00,SummerDesignDay
9,74167648.3352966
684,0.0
715,51571392.6628789
2,1, 7,21, 0, 4,45.00,60.00,SummerDesignDay
9,74167648.3352966
684,0.0
715,51173086.127404
2,1, 7,21, 0, 5, 0.00,15.00,SummerDesignDay
9,74167648.3352966
684,0.0
715,50829522.6364451
2,1, 7,21, 0, 5,15.00,30.00,SummerDesignDay
9,74167648.3352966
684,0.0
715,50498775.0598849
2,1, 7,21, 0, 5,30.00,45.00,SummerDesignDay
9,74167648.3352966
684,0.0
715,50177176.699396
2,1, 7,21, 0, 5,45.00,60.00,SummerDesignDay
9,74167648.3352966
684,0.0
715,49862453.0302706
2,1, 7,21, 0, 6, 0.00,15.00,SummerDesignDay
9,74167648.3352966
684,0.0
715,49978766.911519
2,1, 7,21, 0, 6,15.00,30.00,SummerDesignDay
9,74167648.3352966
684,0.0
715,50479834.4161065
2,1, 7,21, 0, 6,30.00,45.00,SummerDesignDay
9,74167648.3352966
684,0.0
715,51312470.1134041
2,1, 7,21, 0, 6,45.00,60.00,SummerDesignDay
9,74167648.3352966
684,0.0
715,54309709.1893639
2,1, 7,21, 0, 7, 0.00,15.00,SummerDesignDay
9,74167648.3352966
684,0.0
715,197841098.539566
2,1, 7,21, 0, 7,15.00,30.00,SummerDesignDay
9,74167648.3352966
684,0.0
715,82975512.1529024
2,1, 7,21, 0, 7,30.00,45.00,SummerDesignDay
9,74167648.3352966
684,0.0
715,173480192.667615
2,1, 7,21, 0, 7,45.00,60.00,SummerDesignDay