Program Version,EnergyPlus, Version 8.5.0-c87e61b44b, YMD=2017.01.18 16:47
1,5,Environment Title[],Latitude[deg],Longitude[deg],Time Zone[],Elevation[m]
2,6,Day of Simulation[],Month[],Day of Month[],DST Indicator[1=yes 0=no],Hour[],StartMinute[],EndMinute[],DayType
3,3,Cumulative Day of Simulation[],Month[],Day of Month[],DST Indicator[1=yes 0=no],DayType  ! When Daily Meters Requested
4,2,Cumulative Days of Simulation[],Month[]  ! When Monthly Meters Requested
5,1,Cumulative Days of Simulation[] ! When Run Period Meters Requested
9,1,Electricity:Facility [J] !TimeStep
715,1,DistrictCooling:Facility [J] !TimeStep
684,1,DistrictHeating:Facility [J] !TimeStep
End of Data Dictionary
1,PIACENZA ANN CLG .4% CONDNS DB=>MWB,  44.92,   9.73,   1.00, 134.00
2,1, 8,21, 0, 1, 0.00,15.00,SummerDesignDay
9,59287618.575237
684,0.0
715,40741553.5642262
2,1, 8,21, 0, 1,15.00,30.00,SummerDesignDay
9,59287618.575237
684,0.0
715,40196520.6042655
2,1, 8,21, 0, 1,30.00,45.00,SummerDesignDay
9,59287618.575237
684,0.0
715,39591275.9478741
2,1, 8,21, 0, 1,45.00,60.00,SummerDesignDay
9,59287618.575237
684,0.0
715,39003147.1363428
2,1, 8,21, 0, 2, 0.00,15.00,SummerDesignDay
9,59287618.575237
684,0.0
715,38561590.2926707
2,1, 8,21, 0, 2,15.00,30.00,SummerDesignDay
9,59287618.575237
684,0.0
715,38134179.3900475
2,1, 8,21, 0, 2,30.00,45.00,SummerDesignDay
9,59287618.575237
684,0.0
715,37720724.9051172
2,1, 8,21, 0, 2,45.00,60.00,SummerDesignDay
9,59287618.575237
684,0.0
715,37311379.1969688
2,1, 8,21, 0, 3, 0.00,15.00,SummerDesignDay
9,59287618.575237
684,0.0
715,36968807.1360351
2,1, 8,21, 0, 3,15.00,30.00,SummerDesignDay
9,59287618.575237
684,0.0
715,36629673.2100313
2,1, 8,21, 0, 3,30.00,45.00,SummerDesignDay
9,59287618.575237
684,0.0
715,36292106.9817315
2,1, 8,21, 0, 3,45.00,60.00,SummerDesignDay
9,59287618.575237
684,0.0
715,35951964.4218084
2,1, 8,21, 0, 4, 0.00,15.00,SummerDesignDay
9,59287618.575237
684,0.0
715,35606804.4817721
2,1, 8,21, 0, 4,15.00,30.00,SummerDesignDay
9,59287618.575237
684,0.0
715,35289927.7285955
2,1, 8,21, 0, 4,30.00,45.00,SummerDesignDay
9,59287618.575237
684,0.0
715,34953376.3843772
2,1, 8,21, 0, 4,45.00,60.00,SummerDesignDay
9,59287618.575237
684,0.0
715,34611861.0964722
2,1, 8,21, 0, 5, 0.00,15.00,SummerDesignDay
9,59287618.575237
684,0.0
715,34337300.4728662
2,1, 8,21, 0, 5,15.00,30.00,SummerDesignDay
9,59287618.575237
684,0.0
715,34090257.3604647
2,1, 8,21, 0, 5,30.00,45.00,SummerDesignDay
9,59287618.575237
684,0.0
715,33888031.4940092
2,1, 8,21, 0, 5,45.00,60.00,SummerDesignDay
9,59287618.575237
684,0.0
715,33683695.0468425
2,1, 8,21, 0, 6, 0.00,15.00,SummerDesignDay
9,59287618.575237
684,0.0
715,33670675.165863
2,1, 8,21, 0, 6,15.00,30.00,SummerDesignDay
9,59287618.575237
684,0.0
715,33666751.2917767
2,1, 8,21, 0, 6,30.00,45.00,SummerDesignDay
9,59287618.575237
684,0.0
715,33939810.3070177
2,1, 8,21, 0, 6,45.00,60.00,SummerDesignDay
9,59287618.575237
684,0.0
715,35339863.5735961
2,1, 8,21, 0, 7, 0.00,15.00,SummerDesignDay
9,59287618.575237
684,0.0
715,153478036.317553
2,1, 8,21, 0, 7,15.00,30.00,SummerDesignDay
9,59287618.575237
684,0.0
715,40590269.3867392
2,1, 8,21, 0, 7,30.00,45.00,SummerDesignDay
9,59287618.575237
684,0.0
715,117825884.008883
2,1, 8,21, 0, 7,45.00,60.00,SummerDesignDay
9,59287618.575237
684,0.0
715,100518019.833128
2,1, 8,21, 0, 8, 0.00,15.00,SummerDesignDay
9,59287618.575237
684,0.0
715,102664535.414911
2,1, 8,21, 0, 8,15.00,30.00,SummerDesignDay
9,59287618.575237
684,0.0
715,104280333.676563
2,1, 8,21, 0, 8,30.00,45.00,SummerDesignDay
9,59287618.575237
684,0.0
715,105908501.558119
2,1, 8,21, 0, 8,45.00,60.00,SummerDesignDay
9,59287618.575237
684,0.0
715,107797577.601487
2,1, 8,21, 0, 9, 0.00,15.00,SummerDesignDay
9,59287618.575237
684,0.0
715,109852886.452385
2,1, 8,21, 0, 9,15.00,30.00,SummerDesignDay
9,59287618.575237
684,0.0
715,111810160.232475
2,1, 8,21, 0, 9,30.00,45.00,SummerDesignDay
9,59287618.575237
684,0.0
715,113698913.37663
2,1, 8,21, 0, 9,45.00,60.00,SummerDesignDay
9,59287618.575237
684,0.0
715,115520935.312521
2,1, 8,21, 0,10, 0.00,15.00,SummerDesignDay
9,59287618.575237
684,0.0
715,117054682.659154
2,1, 8,21, 0,10,15.00,30.00,SummerDesignDay
9,59287618.575237
684,0.0
715,118550548.972522
2,1, 8,21, 0,10,30.00,45.00,SummerDesignDay
9,59287618.575237
684,0.0
715,120015520.270523
2,1, 8,21, 0,10,45.00,60.00,SummerDesignDay
9,59287618.575237
684,0.0
715,121460715.06327
2,1, 8,21, 0,11, 0.00,15.00,SummerDesignDay
9,59287618.575237
684,0.0
715,123022067.029714
2,1, 8,21, 0,11,15.00,30.00,SummerDesignDay
9,59287618.575237
684,0.0
715,124789582.847553
2,1, 8,21, 0,11,30.00,45.00,SummerDesignDay
9,59287618.575237
684,0.0
715,126643898.400553
2,1, 8,21, 0,11,45.00,60.00,SummerDesignDay
9,59287618.575237
684,0.0
715,128546826.725058
2,1, 8,21, 0,12, 0.00,15.00,SummerDesignDay
9,59287618.575237
684,0.0
715,129894174.601276
2,1, 8,21, 0,12,15.00,30.00,SummerDesignDay
9,59287618.575237
684,0.0
715,131249509.094542
2,1, 8,21, 0,12,30.00,45.00,SummerDesignDay
9,59287618.575237
684,0.0
715,132637966.746344
2,1, 8,21, 0,12,45.00,60.00,SummerDesignDay
9,59287618.575237
684,0.0
715,134056526.286641
2,1, 8,21, 0,13, 0.00,15.00,SummerDesignDay
9,59287618.575237
684,0.0
715,135247502.940881
2,1, 8,21, 0,13,15.00,30.00,SummerDesignDay
9,59287618.575237
684,0.0
715,136454348.500951
2,1, 8,21, 0,13,30.00,45.00,SummerDesignDay
9,59287618.575237
684,0.0
715,137685545.815655
2,1, 8,21, 0,13,45.00,60.00,SummerDesignDay
9,59287618.575237
684,0.0
715,138929110.394167
2,1, 8,21, 0,14, 0.00,15.00,SummerDesignDay
9,59287618.575237
684,0.0
715,139436856.540031
2,1, 8,21, 0,14,15.00,30.00,SummerDesignDay
9,59287618.575237
684,0.0
715,139932164.26176
2,1, 8,21, 0,14,30.00,45.00,SummerDesignDay
9,59287618.575237
684,0.0
715,140543157.685746
2,1, 8,21, 0,14,45.00,60.00,SummerDesignDay
9,59287618.575237
684,0.0
715,141270210.602947
2,1, 8,21, 0,15, 0.00,15.00,SummerDesignDay
9,59287618.575237
684,0.0
715,141443815.320764
2,1, 8,21, 0,15,15.00,30.00,SummerDesignDay
9,59287618.575237
684,0.0
715,141638320.637237
2,1, 8,21, 0,15,30.00,45.00,SummerDesignDay
9,59287618.575237
684,0.0
715,141851812.951213
2,1, 8,21, 0,15,45.00,60.00,SummerDesignDay
9,59287618.575237
684,0.0
715,142397399.531266
2,1, 8,21, 0,16, 0.00,15.00,SummerDesignDay
9,59287618.575237
684,0.0
715,142403542.907157
2,1, 8,21, 0,16,15.00,30.00,SummerDesignDay
9,59287618.575237
684,0.0
715,142459050.496391
2,1, 8,21, 0,16,30.00,45.00,SummerDesignDay
9,59287618.575237
684,0.0
715,142537429.57747
2,1, 8,21, 0,16,45.00,60.00,SummerDesignDay
9,59287618.575237
684,0.0
715,142603893.55907
2,1, 8,21, 0,17, 0.00,15.00,SummerDesignDay
9,59287618.575237
684,0.0
715,142384559.236463
2,1, 8,21, 0,17,15.00,30.00,SummerDesignDay
9,59287618.575237
684,0.0
715,142096478.299922
2,1, 8,21, 0,17,30.00,45.00,SummerDesignDay
9,59287618.575237
684,0.0
715,141731103.425562
2,1, 8,21, 0,17,45.00,60.00,SummerDesignDay
9,59287618.575237
684,0.0
715,141136810.409233
2,1, 8,21, 0,18, 0.00,15.00,SummerDesignDay
9,59287618.575237
684,0.0
715,140249131.579412
2,1, 8,21, 0,18,15.00,30.00,SummerDesignDay
9,59287618.575237
684,0.0
715,139259885.751585
2,1, 8,21, 0,18,30.00,45.00,SummerDesignDay
9,59287618.575237
684,0.0
715,138156713.192445
2,1, 8,21, 0,18,45.00,60.00,SummerDesignDay
9,59287618.575237
684,0.0
715,136925586.292673
2,1, 8,21, 0,19, 0.00,15.00,SummerDesignDay
9,59287618.575237
684,0.0
715,134908265.859322
2,1, 8,21, 0,19,15.00,30.00,SummerDesignDay
9,59287618.575237
684,0.0
715,132510842.808917
2,1, 8,21, 0,19,30.00,45.00,SummerDesignDay
9,59287618.575237
684,0.0
715,129918465.082631
2,1, 8,21, 0,19,45.00,60.00,SummerDesignDay
9,59287618.575237
684,0.0
715,126907387.864345
2,1, 8,21, 0,20, 0.00,15.00,SummerDesignDay
9,59287618.575237
684,0.0
715,124388372.68773
2,1, 8,21, 0,20,15.00,30.00,SummerDesignDay
9,59287618.575237
684,0.0
715,122407132.267073
2,1, 8,21, 0,20,30.00,45.00,SummerDesignDay
9,59287618.575237
684,0.0
715,120630767.724395
2,1, 8,21, 0,20,45.00,60.00,SummerDesignDay
9,59287618.575237
684,0.0
715,118920615.925826
2,1, 8,21, 0,21, 0.00,15.00,SummerDesignDay
9,59287618.575237
684,0.0
715,117462146.840976
2,1, 8,21, 0,21,15.00,30.00,SummerDesignDay
9,59287618.575237
684,0.0
715,116012365.17488
2,1, 8,21, 0,21,30.00,45.00,SummerDesignDay
9,59287618.575237
684,0.0
715,114563499.452455
2,1, 8,21, 0,21,45.00,60.00,SummerDesignDay
9,59287618.575237
684,0.0
715,113121877.252254
2,1, 8,21, 0,22, 0.00,15.00,SummerDesignDay
9,59287618.575237
684,0.0
715,111668210.035056
2,1, 8,21, 0,22,15.00,30.00,SummerDesignDay
9,59287618.575237
684,0.0
715,110208077.585037
2,1, 8,21, 0,22,30.00,45.00,SummerDesignDay
9,59287618.575237
684,0.0
715,108745252.774821
2,1, 8,21, 0,22,45.00,60.00,SummerDesignDay
9,59287618.575237
684,0.0
715,107303754.010623
2,1, 8,21, 0,23, 0.00,15.00,SummerDesignDay
9,59287618.575237
684,0.0
715,17204920.2269285
2,1, 8,21, 0,23,15.00,30.00,SummerDesignDay
9,59287618.575237
684,0.0
715,31208121.8676327
2,1, 8,21, 0,23,30.00,45.00,SummerDesignDay
9,59287618.575237
684,0.0
715,37823854.1121097
2,1, 8,21, 0,23,45.00,60.00,SummerDesignDay
9,59287618.575237
684,0.0
715,40372224.3280892
2,1, 8,21, 0,24, 0.00,15.00,SummerDesignDay
9,59287618.575237
684,0.0
715,43299601.0527631
2,1, 8,21, 0,24,15.00,30.00,SummerDesignDay
9,59287618.575237
684,0.0
715,41834040.3591383
2,1, 8,21, 0,24,30.00,45.00,SummerDesignDay
9,59287618.575237
684,0.0
715,41397440.9422061
2,1, 8,21, 0,24,45.00,60.00,SummerDesignDay
9,59287618.575237
684,0.0
715,41164204.3619522
1,PIACENZA ANN CLG .4% CONDNS DP=>MDB,  44.92,   9.73,   1.00, 134.00
2,1, 8,21, 0, 1, 0.00,15.00,SummerDesignDay
9,59287618.575237
684,0.0
715,24999910.5340243
2,1, 8,21, 0, 1,15.00,30.00,SummerDesignDay
9,59287618.575237
684,0.0
715,24418276.0457384
2,1, 8,21, 0, 1,30.00,45.00,SummerDesignDay
9,59287618.575237
684,0.0
715,23780975.9153861
2,1, 8,21, 0, 1,45.00,60.00,SummerDesignDay
9,59287618.575237
684,0.0
715,23081254.4649834
2,1, 8,21, 0, 2, 0.00,15.00,SummerDesignDay
9,59287618.575237
684,0.0
715,22280033.5950217
2,1, 8,21, 0, 2,15.00,30.00,SummerDesignDay
9,59287618.575237
684,0.0
715,21530154.1943177
2,1, 8,21, 0, 2,30.00,45.00,SummerDesignDay
9,59287618.575237
684,0.0
715,20831752.5585096
2,1, 8,21, 0, 2,45.00,60.00,SummerDesignDay
9,59287618.575237
684,0.0
715,20177244.2414333
2,1, 8,21, 0, 3, 0.00,15.00,SummerDesignDay
9,59287618.575237
684,0.0
715,19615868.8773755
2,1, 8,21, 0, 3,15.00,30.00,SummerDesignDay
9,59287618.575237
684,0.0
715,19086029.7697622
2,1, 8,21, 0, 3,30.00,45.00,SummerDesignDay
9,59287618.575237
684,0.0
715,18579671.6874761
2,1, 8,21, 0, 3,45.00,60.00,SummerDesignDay
9,59287618.575237
684,0.0
715,18092351.1164005
2,1, 8,21, 0, 4, 0.00,15.00,SummerDesignDay
9,59287618.575237
684,0.0
715,17620519.2860574
2,1, 8,21, 0, 4,15.00,30.00,SummerDesignDay
9,59287618.575237
684,0.0
715,17161356.7935827
2,1, 8,21, 0, 4,30.00,45.00,SummerDesignDay
9,59287618.575237
684,0.0
715,16712613.8214816
2,1, 8,21, 0, 4,45.00,60.00,SummerDesignDay
9,59287618.575237
684,0.0
715,16272491.563017
2,1, 8,21, 0, 5, 0.00,15.00,SummerDesignDay
9,59287618.575237
684,0.0
715,15894881.5137388
2,1, 8,21, 0, 5,15.00,30.00,SummerDesignDay
9,59287618.575237
684,0.0
715,15528158.6090464
2,1, 8,21, 0, 5,30.00,45.00,SummerDesignDay
9,59287618.575237
684,0.0
715,15169547.2943023
2,1, 8,21, 0, 5,45.00,60.00,SummerDesignDay
9,59287618.575237
684,0.0
715,14817572.777997
2,1, 8,21, 0, 6, 0.00,15.00,SummerDesignDay
9,59287618.575237
684,0.0
715,14692049.8839936
2,1, 8,21, 0, 6,15.00,30.00,SummerDesignDay
9,59287618.575237
684,0.0
715,14590698.8167234
2,1, 8,21, 0, 6,30.00,45.00,SummerDesignDay
9,59287618.575237
684,0.0
715,14850875.1685322
2,1, 8,21, 0, 6,45.00,60.00,SummerDesignDay
9,59287618.575237
684,0.0
715,15572017.510913
2,1, 8,21, 0, 7, 0.00,15.00,SummerDesignDay
9,59287618.575237
684,0.0
715,112119788.347342
2,1, 8,21, 0, 7,15.00,30.00,SummerDesignDay
9,59287618.575237
684,0.0
715,8337371.41195244
2,1, 8,21, 0, 7,30.00,45.00,SummerDesignDay
9,59287618.575237
684,0.0
715,75425327.0841452
2,1, 8,21, 0, 7,45.00,60.00,SummerDesignDay
9,59287618.575237
684,0.0
715,62130552.932471
2,1, 8,21, 0, 8, 0.00,15.00,SummerDesignDay
9,59287618.575237
684,0.0
715,64386829.6869506
2,1, 8,21, 0, 8,15.00,30.00,SummerDesignDay
9,59287618.575237
684,0.0
715,67274613.4364999
2,1, 8,21, 0, 8,30.00,45.00,SummerDesignDay
9,59287618.575237
684,0.0
715,69944065.2237264
2,1, 8,21, 0, 8,45.00,60.00,SummerDesignDay
9,59287618.575237
684,0.0
715,72805202.1123188
2,1, 8,21, 0, 9, 0.00,15.00,SummerDesignDay
9,59287618.575237
684,0.0
715,75788129.4468626
2,1, 8,21, 0, 9,15.00,30.00,SummerDesignDay
9,59287618.575237
684,0.0
715,78665236.0011652
2,1, 8,21, 0, 9,30.00,45.00,SummerDesignDay
9,59287618.575237
684,0.0
715,81515484.6624032
2,1, 8,21, 0, 9,45.00,60.00,SummerDesignDay
9,59287618.575237
684,0.0
715,84336038.1315929
2,1, 8,21, 0,10, 0.00,15.00,SummerDesignDay
9,59287618.575237
684,0.0
715,86849578.6425101
2,1, 8,21, 0,10,15.00,30.00,SummerDesignDay
9,59287618.575237
684,0.0
715,89307474.3093417
2,1, 8,21, 0,10,30.00,45.00,SummerDesignDay
9,59287618.575237
684,0.0
715,92408239.0104121
2,1, 8,21, 0,10,45.00,60.00,SummerDesignDay
9,59287618.575237
684,0.0
715,95886560.7137001
2,1, 8,21, 0,11, 0.00,15.00,SummerDesignDay
9,59287618.575237
684,0.0
715,100623070.962393
2,1, 8,21, 0,11,15.00,30.00,SummerDesignDay
9,59287618.575237
684,0.0
715,105018131.043129
2,1, 8,21, 0,11,30.00,45.00,SummerDesignDay
9,59287618.575237
684,0.0
715,108643702.323919
2,1, 8,21, 0,11,45.00,60.00,SummerDesignDay
9,59287618.575237
684,0.0
715,111436443.241766
2,1, 8,21, 0,12, 0.00,15.00,SummerDesignDay
9,59287618.575237
684,0.0
715,113041475.675516
2,1, 8,21, 0,12,15.00,30.00,SummerDesignDay
9,59287618.575237
684,0.0
715,114401858.46857
2,1, 8,21, 0,12,30.00,45.00,SummerDesignDay
9,59287618.575237
684,0.0
715,115731844.318719
2,1, 8,21, 0,12,45.00,60.00,SummerDesignDay
9,59287618.575237
684,0.0
715,117083234.573851
2,1, 8,21, 0,13, 0.00,15.00,SummerDesignDay
9,59287618.575237
684,0.0
715,118171495.02084
2,1, 8,21, 0,13,15.00,30.00,SummerDesignDay
9,59287618.575237
684,0.0
715,119276073.406517
2,1, 8,21, 0,13,30.00,45.00,SummerDesignDay
9,59287618.575237
684,0.0
715,120417842.852268
2,1, 8,21, 0,13,45.00,60.00,SummerDesignDay
9,59287618.575237
684,0.0
715,121583582.762269
2,1, 8,21, 0,14, 0.00,15.00,SummerDesignDay
9,59287618.575237
684,0.0
715,122340035.566805
2,1, 8,21, 0,14,15.00,30.00,SummerDesignDay
9,59287618.575237
684,0.0
715,123113384.988662
2,1, 8,21, 0,14,30.00,45.00,SummerDesignDay
9,59287618.575237
684,0.0
715,123881443.56915
2,1, 8,21, 0,14,45.00,60.00,SummerDesignDay
9,59287618.575237
684,0.0
715,124682066.615461
2,1, 8,21, 0,15, 0.00,15.00,SummerDesignDay
9,59287618.575237
684,0.0
715,124796495.676379
2,1, 8,21, 0,15,15.00,30.00,SummerDesignDay
9,59287618.575237
684,0.0
715,124928560.35893
2,1, 8,21, 0,15,30.00,45.00,SummerDesignDay
9,59287618.575237
684,0.0
715,125096761.00587
2,1, 8,21, 0,15,45.00,60.00,SummerDesignDay
9,59287618.575237
684,0.0
715,125661075.946181
2,1, 8,21, 0,16, 0.00,15.00,SummerDesignDay
9,59287618.575237
684,0.0
715,125621520.643183
2,1, 8,21, 0,16,15.00,30.00,SummerDesignDay
9,59287618.575237
684,0.0
715,125648712.89988
2,1, 8,21, 0,16,30.00,45.00,SummerDesignDay
9,59287618.575237
684,0.0
715,125714575.215542
2,1, 8,21, 0,16,45.00,60.00,SummerDesignDay
9,59287618.575237
684,0.0
715,125778779.960538
2,1, 8,21, 0,17, 0.00,15.00,SummerDesignDay
9,59287618.575237
684,0.0
715,125529086.628794
2,1, 8,21, 0,17,15.00,30.00,SummerDesignDay
9,59287618.575237
684,0.0
715,125216971.455788
2,1, 8,21, 0,17,30.00,45.00,SummerDesignDay
9,59287618.575237
684,0.0
715,124824346.334676
2,1, 8,21, 0,17,45.00,60.00,SummerDesignDay
9,59287618.575237
684,0.0
715,124188734.782332
2,1, 8,21, 0,18, 0.00,15.00,SummerDesignDay
9,59287618.575237
684,0.0
715,123239311.300707
2,1, 8,21, 0,18,15.00,30.00,SummerDesignDay
9,59287618.575237
684,0.0
715,122198248.230336
2,1, 8,21, 0,18,30.00,45.00,SummerDesignDay
9,59287618.575237
684,0.0
715,121036265.373892
2,1, 8,21, 0,18,45.00,60.00,SummerDesignDay
9,59287618.575237
684,0.0
715,119741648.264028
2,1, 8,21, 0,19, 0.00,15.00,SummerDesignDay
9,59287618.575237
684,0.0
715,117573378.930456
2,1, 8,21, 0,19,15.00,30.00,SummerDesignDay
9,59287618.575237
684,0.0
715,114974081.379538
2,1, 8,21, 0,19,30.00,45.00,SummerDesignDay
9,59287618.575237
684,0.0
715,112238387.56158
2,1, 8,21, 0,19,45.00,60.00,SummerDesignDay
9,59287618.575237
684,0.0
715,108971626.689426
2,1, 8,21, 0,20, 0.00,15.00,SummerDesignDay
9,59287618.575237
684,0.0
715,105939227.192099
2,1, 8,21, 0,20,15.00,30.00,SummerDesignDay
9,59287618.575237
684,0.0
715,103295490.367464
2,1, 8,21, 0,20,30.00,45.00,SummerDesignDay
9,59287618.575237
684,0.0
715,100640350.896896
2,1, 8,21, 0,20,45.00,60.00,SummerDesignDay
9,59287618.575237
684,0.0
715,97853645.2748142
2,1, 8,21, 0,21, 0.00,15.00,SummerDesignDay
9,59287618.575237
684,0.0
715,95288479.4284315
2,1, 8,21, 0,21,15.00,30.00,SummerDesignDay
9,59287618.575237
684,0.0
715,92747546.4157168
2,1, 8,21, 0,21,30.00,45.00,SummerDesignDay
9,59287618.575237
684,0.0
715,90245586.0066123
2,1, 8,21, 0,21,45.00,60.00,SummerDesignDay
9,59287618.575237
684,0.0
715,87771313.8280396
2,1, 8,21, 0,22, 0.00,15.00,SummerDesignDay
9,59287618.575237
684,0.0
715,85314613.7331571
2,1, 8,21, 0,22,15.00,30.00,SummerDesignDay
9,59287618.575237
684,0.0
715,82868887.0326683
2,1, 8,21, 0,22,30.00,45.00,SummerDesignDay
9,59287618.575237
684,0.0
715,80433405.4130096
2,1, 8,21, 0,22,45.00,60.00,SummerDesignDay
9,59287618.575237
684,0.0
715,78046770.3839958
2,1, 8,21, 0,23, 0.00,15.00,SummerDesignDay
9,59287618.575237
684,0.0
715,5458660.39165858
2,1, 8,21, 0,23,15.00,30.00,SummerDesignDay
9,59287618.575237
684,0.0
715,13814036.3915604
2,1, 8,21, 0,23,30.00,45.00,SummerDesignDay
9,59287618.575237
684,0.0
715,20574014.8423635
2,1, 8,21, 0,23,45.00,60.00,SummerDesignDay
9,59287618.575237
684,0.0
715,26530646.3300295
2,1, 8,21, 0,24, 0.00,15.00,SummerDesignDay
9,59287618.575237
684,0.0
715,25026908.1186876
2,1, 8,21, 0,24,15.00,30.00,SummerDesignDay
9,59287618.575237
684,0.0
715,25722762.6046885
2,1, 8,21, 0,24,30.00,45.00,SummerDesignDay
9,59287618.575237
684,0.0
715,25426316.1499943
2,1, 8,21, 0,24,45.00,60.00,SummerDesignDay
9,59287618.575237
684,0.0
715,24992367.4320787
1,PIACENZA ANN CLG .4% CONDNS ENTH=>MDB,  44.92,   9.73,   1.00, 134.00
2,1, 8,21, 0, 1, 0.00,15.00,SummerDesignDay
9,59287618.575237
684,0.0
715,36130371.4949017
2,1, 8,21, 0, 1,15.00,30.00,SummerDesignDay
9,59287618.575237
684,0.0
715,35434933.6028381
2,1, 8,21, 0, 1,30.00,45.00,SummerDesignDay
9,59287618.575237
684,0.0
715,34789568.0341767
2,1, 8,21, 0, 1,45.00,60.00,SummerDesignDay
9,59287618.575237
684,0.0
715,34205646.8025009
2,1, 8,21, 0, 2, 0.00,15.00,SummerDesignDay
9,59287618.575237
684,0.0
715,33348154.7410799
2,1, 8,21, 0, 2,15.00,30.00,SummerDesignDay
9,59287618.575237
684,0.0
715,32533296.9158999
2,1, 8,21, 0, 2,30.00,45.00,SummerDesignDay
9,59287618.575237
684,0.0
715,31794700.1211687
2,1, 8,21, 0, 2,45.00,60.00,SummerDesignDay
9,59287618.575237
684,0.0
715,31124401.2815333
2,1, 8,21, 0, 3, 0.00,15.00,SummerDesignDay
9,59287618.575237
684,0.0
715,30505634.813013
2,1, 8,21, 0, 3,15.00,30.00,SummerDesignDay
9,59287618.575237
684,0.0
715,29933104.137077
2,1, 8,21, 0, 3,30.00,45.00,SummerDesignDay
9,59287618.575237
684,0.0
715,29406892.3393192
2,1, 8,21, 0, 3,45.00,60.00,SummerDesignDay
9,59287618.575237
684,0.0
715,28913540.6493648
2,1, 8,21, 0, 4, 0.00,15.00,SummerDesignDay
9,59287618.575237
684,0.0
715,28445798.3908262
2,1, 8,21, 0, 4,15.00,30.00,SummerDesignDay
9,59287618.575237
684,0.0
715,27998121.8935401
2,1, 8,21, 0, 4,30.00,45.00,SummerDesignDay
9,59287618.575237
684,0.0
715,27565628.3616872
2,1, 8,21, 0, 4,45.00,60.00,SummerDesignDay
9,59287618.575237
684,0.0
715,27144813.1511532
2,1, 8,21, 0, 5, 0.00,15.00,SummerDesignDay
9,59287618.575237
684,0.0
715,26786633.4723456
2,1, 8,21, 0, 5,15.00,30.00,SummerDesignDay
9,59287618.575237
684,0.0
715,26440981.0255783
2,1, 8,21, 0, 5,30.00,45.00,SummerDesignDay
9,59287618.575237
684,0.0
715,26104745.147317
2,1, 8,21, 0, 5,45.00,60.00,SummerDesignDay
9,59287618.575237
684,0.0
715,25773036.5103154
2,1, 8,21, 0, 6, 0.00,15.00,SummerDesignDay
9,59287618.575237
684,0.0
715,25660265.8818393
2,1, 8,21, 0, 6,15.00,30.00,SummerDesignDay
9,59287618.575237
684,0.0
715,25571503.2118449
2,1, 8,21, 0, 6,30.00,45.00,SummerDesignDay
9,59287618.575237
684,0.0
715,25820270.7045402
2,1, 8,21, 0, 6,45.00,60.00,SummerDesignDay
9,59287618.575237
684,0.0
715,26496788.2417185
2,1, 8,21, 0, 7, 0.00,15.00,SummerDesignDay
9,59287618.575237
684,0.0
715,144965103.51166
2,1, 8,21, 0, 7,15.00,30.00,SummerDesignDay
9,59287618.575237
684,0.0
715,24671257.3582201
2,1, 8,21, 0, 7,30.00,45.00,SummerDesignDay
9,59287618.575237
684,0.0
715,104346191.184916
2,1, 8,21, 0, 7,45.00,60.00,SummerDesignDay
9,59287618.575237
684,0.0
715,85564693.0356128
2,1, 8,21, 0, 8, 0.00,15.00,SummerDesignDay
9,59287618.575237
684,0.0
715,87847512.8331651
2,1, 8,21, 0, 8,15.00,30.00,SummerDesignDay
9,59287618.575237
684,0.0
715,90044158.4200499
2,1, 8,21, 0, 8,30.00,45.00,SummerDesignDay
9,59287618.575237
684,0.0
715,92444445.6176373
2,1, 8,21, 0, 8,45.00,60.00,SummerDesignDay
9,59287618.575237
684,0.0
715,95073885.147679
2,1, 8,21, 0, 9, 0.00,15.00,SummerDesignDay
9,59287618.575237
684,0.0
715,97926505.6146128
2,1, 8,21, 0, 9,15.00,30.00,SummerDesignDay
9,59287618.575237
684,0.0
715,101494830.963606
2,1, 8,21, 0, 9,30.00,45.00,SummerDesignDay
9,59287618.575237
684,0.0
715,105341014.996898
2,1, 8,21, 0, 9,45.00,60.00,SummerDesignDay
9,59287618.575237
684,0.0
715,109021877.279087
2,1, 8,21, 0,10, 0.00,15.00,SummerDesignDay
9,59287618.575237
684,0.0
715,114063589.038634
2,1, 8,21, 0,10,15.00,30.00,SummerDesignDay
9,59287618.575237
684,0.0
715,119123994.655287
2,1, 8,21, 0,10,30.00,45.00,SummerDesignDay
9,59287618.575237
684,0.0
715,123716097.550347
2,1, 8,21, 0,10,45.00,60.00,SummerDesignDay
9,59287618.575237
684,0.0
715,127978474.727576
2,1, 8,21, 0,11, 0.00,15.00,SummerDesignDay
9,59287618.575237
684,0.0
715,132239299.514692
2,1, 8,21, 0,11,15.00,30.00,SummerDesignDay
9,59287618.575237
684,0.0
715,136690334.112029
2,1, 8,21, 0,11,30.00,45.00,SummerDesignDay
9,59287618.575237
684,0.0
715,141201475.615988
2,1, 8,21, 0,11,45.00,60.00,SummerDesignDay
9,59287618.575237
684,0.0
715,145755426.229943
2,1, 8,21, 0,12, 0.00,15.00,SummerDesignDay
9,59287618.575237
684,0.0
715,149585458.473092
2,1, 8,21, 0,12,15.00,30.00,SummerDesignDay
9,59287618.575237
684,0.0
715,153225605.609356
2,1, 8,21, 0,12,30.00,45.00,SummerDesignDay
9,59287618.575237
684,0.0
715,156689500.778828
2,1, 8,21, 0,12,45.00,60.00,SummerDesignDay
9,59287618.575237
684,0.0
715,160062918.320418
2,1, 8,21, 0,13, 0.00,15.00,SummerDesignDay
9,59287618.575237
684,0.0
715,163078738.775487
2,1, 8,21, 0,13,15.00,30.00,SummerDesignDay
9,59287618.575237
684,0.0
715,166030898.562179
2,1, 8,21, 0,13,30.00,45.00,SummerDesignDay
9,59287618.575237
684,0.0
715,168936363.106668
2,1, 8,21, 0,13,45.00,60.00,SummerDesignDay
9,59287618.575237
684,0.0
715,171816585.679295
2,1, 8,21, 0,14, 0.00,15.00,SummerDesignDay
9,59287618.575237
684,0.0
715,174167891.783583
2,1, 8,21, 0,14,15.00,30.00,SummerDesignDay
9,59287618.575237
684,0.0
715,176378067.421853
2,1, 8,21, 0,14,30.00,45.00,SummerDesignDay
9,59287618.575237
684,0.0
715,178400960.180159
2,1, 8,21, 0,14,45.00,60.00,SummerDesignDay
9,59287618.575237
684,0.0
715,180354902.184876
2,1, 8,21, 0,15, 0.00,15.00,SummerDesignDay
9,59287618.575237
684,0.0
715,181386645.813153
2,1, 8,21, 0,15,15.00,30.00,SummerDesignDay
9,59287618.575237
684,0.0
715,182146470.123394
2,1, 8,21, 0,15,30.00,45.00,SummerDesignDay
9,59287618.575237
684,0.0
715,182635205.659539
2,1, 8,21, 0,15,45.00,60.00,SummerDesignDay
9,59287618.575237
684,0.0
715,183437373.323448
2,1, 8,21, 0,16, 0.00,15.00,SummerDesignDay
9,59287618.575237
684,0.0
715,183351113.469239
2,1, 8,21, 0,16,15.00,30.00,SummerDesignDay
9,59287618.575237
684,0.0
715,182954972.31781
2,1, 8,21, 0,16,30.00,45.00,SummerDesignDay
9,59287618.575237
684,0.0
715,182199678.868855
2,1, 8,21, 0,16,45.00,60.00,SummerDesignDay
9,59287618.575237
684,0.0
715,181194868.738423
2,1, 8,21, 0,17, 0.00,15.00,SummerDesignDay
9,59287618.575237
684,0.0
715,179697605.422153
2,1, 8,21, 0,17,15.00,30.00,SummerDesignDay
9,59287618.575237
684,0.0
715,178002407.761676
2,1, 8,21, 0,17,30.00,45.00,SummerDesignDay
9,59287618.575237
684,0.0
715,176111973.70994
2,1, 8,21, 0,17,45.00,60.00,SummerDesignDay
9,59287618.575237
684,0.0
715,173873010.259519
2,1, 8,21, 0,18, 0.00,15.00,SummerDesignDay
9,59287618.575237
684,0.0
715,171253452.581262
2,1, 8,21, 0,18,15.00,30.00,SummerDesignDay
9,59287618.575237
684,0.0
715,168453147.282747
2,1, 8,21, 0,18,30.00,45.00,SummerDesignDay
9,59287618.575237
684,0.0
715,165454443.822991
2,1, 8,21, 0,18,45.00,60.00,SummerDesignDay
9,59287618.575237
684,0.0
715,162275641.162467
2,1, 8,21, 0,19, 0.00,15.00,SummerDesignDay
9,59287618.575237
684,0.0
715,158082823.271572
2,1, 8,21, 0,19,15.00,30.00,SummerDesignDay
9,59287618.575237
684,0.0
715,153217020.1507
2,1, 8,21, 0,19,30.00,45.00,SummerDesignDay
9,59287618.575237
684,0.0
715,148118041.14331
2,1, 8,21, 0,19,45.00,60.00,SummerDesignDay
9,59287618.575237
684,0.0
715,142494209.425778
2,1, 8,21, 0,20, 0.00,15.00,SummerDesignDay
9,59287618.575237
684,0.0
715,137561180.68216
2,1, 8,21, 0,20,15.00,30.00,SummerDesignDay
9,59287618.575237
684,0.0
715,133675490.065757
2,1, 8,21, 0,20,30.00,45.00,SummerDesignDay
9,59287618.575237
684,0.0
715,130320426.26053
2,1, 8,21, 0,20,45.00,60.00,SummerDesignDay
9,59287618.575237
684,0.0
715,127123665.631854
2,1, 8,21, 0,21, 0.00,15.00,SummerDesignDay
9,59287618.575237
684,0.0
715,124252788.988162
2,1, 8,21, 0,21,15.00,30.00,SummerDesignDay
9,59287618.575237
684,0.0
715,121446904.931242
2,1, 8,21, 0,21,30.00,45.00,SummerDesignDay
9,59287618.575237
684,0.0
715,118706563.581212
2,1, 8,21, 0,21,45.00,60.00,SummerDesignDay
9,59287618.575237
684,0.0
715,115998617.935441
2,1, 8,21, 0,22, 0.00,15.00,SummerDesignDay
9,59287618.575237
684,0.0
715,113313264.835433
2,1, 8,21, 0,22,15.00,30.00,SummerDesignDay
9,59287618.575237
684,0.0
715,110642601.35323
2,1, 8,21, 0,22,30.00,45.00,SummerDesignDay
9,59287618.575237
684,0.0
715,107984018.88557
2,1, 8,21, 0,22,45.00,60.00,SummerDesignDay
9,59287618.575237
684,0.0
715,105337936.862098
2,1, 8,21, 0,23, 0.00,15.00,SummerDesignDay
9,59287618.575237
684,0.0
715,12464063.2497509
2,1, 8,21, 0,23,15.00,30.00,SummerDesignDay
9,59287618.575237
684,0.0
715,26382756.6954462
2,1, 8,21, 0,23,30.00,45.00,SummerDesignDay
9,59287618.575237
684,0.0
715,32882425.8345031
2,1, 8,21, 0,23,45.00,60.00,SummerDesignDay
9,59287618.575237
684,0.0
715,35780511.3479826
2,1, 8,21, 0,24, 0.00,15.00,SummerDesignDay
9,59287618.575237
684,0.0
715,36836974.3622412
2,1, 8,21, 0,24,15.00,30.00,SummerDesignDay
9,59287618.575237
684,0.0
715,37272184.4506462
2,1, 8,21, 0,24,30.00,45.00,SummerDesignDay
9,59287618.575237
684,0.0
715,36868295.6217366
2,1, 8,21, 0,24,45.00,60.00,SummerDesignDay
9,59287618.575237
684,0.0
715,36387880.7211003
1,PIACENZA ANN CLG .4% CONDNS WB=>MDB,  44.92,   9.73,   1.00, 134.00
2,1, 8,21, 0, 1, 0.00,15.00,SummerDesignDay
9,59287618.575237
684,0.0
715,35192637.4083887
2,1, 8,21, 0, 1,15.00,30.00,SummerDesignDay
9,59287618.575237
684,0.0
715,34503717.5071016
2,1, 8,21, 0, 1,30.00,45.00,SummerDesignDay
9,59287618.575237
684,0.0
715,33908416.0513423
2,1, 8,21, 0, 1,45.00,60.00,SummerDesignDay
9,59287618.575237
684,0.0
715,33326026.9896451
2,1, 8,21, 0, 2, 0.00,15.00,SummerDesignDay
9,59287618.575237
684,0.0
715,32471903.1308858
2,1, 8,21, 0, 2,15.00,30.00,SummerDesignDay
9,59287618.575237
684,0.0
715,31671726.5059563
2,1, 8,21, 0, 2,30.00,45.00,SummerDesignDay
9,59287618.575237
684,0.0
715,30945039.8581146
2,1, 8,21, 0, 2,45.00,60.00,SummerDesignDay
9,59287618.575237
684,0.0
715,30263892.5293492
2,1, 8,21, 0, 3, 0.00,15.00,SummerDesignDay
9,59287618.575237
684,0.0
715,29645641.6046343
2,1, 8,21, 0, 3,15.00,30.00,SummerDesignDay
9,59287618.575237
684,0.0
715,29080918.5283283
2,1, 8,21, 0, 3,30.00,45.00,SummerDesignDay
9,59287618.575237
684,0.0
715,28557238.6769383
2,1, 8,21, 0, 3,45.00,60.00,SummerDesignDay
9,59287618.575237
684,0.0
715,28066790.8503076
2,1, 8,21, 0, 4, 0.00,15.00,SummerDesignDay
9,59287618.575237
684,0.0
715,27601718.0215884
2,1, 8,21, 0, 4,15.00,30.00,SummerDesignDay
9,59287618.575237
684,0.0
715,27155891.9925896
2,1, 8,21, 0, 4,30.00,45.00,SummerDesignDay
9,59287618.575237
684,0.0
715,26724822.3368909
2,1, 8,21, 0, 4,45.00,60.00,SummerDesignDay
9,59287618.575237
684,0.0
715,26305320.7651436
2,1, 8,21, 0, 5, 0.00,15.00,SummerDesignDay
9,59287618.575237
684,0.0
715,25949047.5137916
2,1, 8,21, 0, 5,15.00,30.00,SummerDesignDay
9,59287618.575237
684,0.0
715,25603816.8361595
2,1, 8,21, 0, 5,30.00,45.00,SummerDesignDay
9,59287618.575237
684,0.0
715,25265627.0334176
2,1, 8,21, 0, 5,45.00,60.00,SummerDesignDay
9,59287618.575237
684,0.0
715,24933804.3820366
2,1, 8,21, 0, 6, 0.00,15.00,SummerDesignDay
9,59287618.575237
684,0.0
715,24821608.5472242
2,1, 8,21, 0, 6,15.00,30.00,SummerDesignDay
9,59287618.575237
684,0.0
715,24733518.0792104
2,1, 8,21, 0, 6,30.00,45.00,SummerDesignDay
9,59287618.575237
684,0.0
715,24985415.822939
2,1, 8,21, 0, 6,45.00,60.00,SummerDesignDay
9,59287618.575237
684,0.0
715,25668319.0653514
2,1, 8,21, 0, 7, 0.00,15.00,SummerDesignDay
9,59287618.575237
684,0.0
715,142315716.775582
2,1, 8,21, 0, 7,15.00,30.00,SummerDesignDay
9,59287618.575237
684,0.0
715,23318600.4870944
2,1, 8,21, 0, 7,30.00,45.00,SummerDesignDay
9,59287618.575237
684,0.0
715,102204134.021053
2,1, 8,21, 0, 7,45.00,60.00,SummerDesignDay
9,59287618.575237
684,0.0
715,83813513.2716156
2,1, 8,21, 0, 8, 0.00,15.00,SummerDesignDay
9,59287618.575237
684,0.0
715,86148724.9167774
2,1, 8,21, 0, 8,15.00,30.00,SummerDesignDay
9,59287618.575237
684,0.0
715,88371531.5538532
2,1, 8,21, 0, 8,30.00,45.00,SummerDesignDay
9,59287618.575237
684,0.0
715,90786856.5483167