Program Version,EnergyPlus, Version 8.5.0-c87e61b44b, YMD=2016.12.22 11:14
1,5,Environment Title[],Latitude[deg],Longitude[deg],Time Zone[],Elevation[m]
2,6,Day of Simulation[],Month[],Day of Month[],DST Indicator[1=yes 0=no],Hour[],StartMinute[],EndMinute[],DayType
3,3,Cumulative Day of Simulation[],Month[],Day of Month[],DST Indicator[1=yes 0=no],DayType  ! When Daily Meters Requested
4,2,Cumulative Days of Simulation[],Month[]  ! When Monthly Meters Requested
5,1,Cumulative Days of Simulation[] ! When Run Period Meters Requested
9,1,Electricity:Facility [J] !TimeStep
330,1,DistrictCooling:Facility [J] !TimeStep
299,1,DistrictHeating:Facility [J] !TimeStep
End of Data Dictionary
1,PIACENZA ANN CLG .4% CONDNS DB=>MWB,  44.92,   9.73,   1.00, 134.00
2,1, 8,21, 0, 1, 0.00,15.00,SummerDesignDay
9,19762539.525079
299,0.0
330,0.0
2,1, 8,21, 0, 1,15.00,30.00,SummerDesignDay
9,19762539.525079
299,0.0
330,0.0
2,1, 8,21, 0, 1,30.00,45.00,SummerDesignDay
9,19762539.525079
299,0.0
330,0.0
2,1, 8,21, 0, 1,45.00,60.00,SummerDesignDay
9,19762539.525079
299,0.0
330,0.0
2,1, 8,21, 0, 2, 0.00,15.00,SummerDesignDay
9,19762539.525079
299,0.0
330,0.0
2,1, 8,21, 0, 2,15.00,30.00,SummerDesignDay
9,19762539.525079
299,0.0
330,0.0
2,1, 8,21, 0, 2,30.00,45.00,SummerDesignDay
9,19762539.525079
299,0.0
330,0.0
2,1, 8,21, 0, 2,45.00,60.00,SummerDesignDay
9,19762539.525079
299,0.0
330,0.0
2,1, 8,21, 0, 3, 0.00,15.00,SummerDesignDay
9,19762539.525079
299,0.0
330,0.0
2,1, 8,21, 0, 3,15.00,30.00,SummerDesignDay
9,19762539.525079
299,0.0
330,0.0
2,1, 8,21, 0, 3,30.00,45.00,SummerDesignDay
9,19762539.525079
299,0.0
330,0.0
2,1, 8,21, 0, 3,45.00,60.00,SummerDesignDay
9,19762539.525079
299,0.0
330,0.0
2,1, 8,21, 0, 4, 0.00,15.00,SummerDesignDay
9,19762539.525079
299,0.0
330,0.0
2,1, 8,21, 0, 4,15.00,30.00,SummerDesignDay
9,19762539.525079
299,0.0
330,0.0
2,1, 8,21, 0, 4,30.00,45.00,SummerDesignDay
9,19762539.525079
299,0.0
330,0.0
2,1, 8,21, 0, 4,45.00,60.00,SummerDesignDay
9,19762539.525079
299,0.0
330,0.0
2,1, 8,21, 0, 5, 0.00,15.00,SummerDesignDay
9,19762539.525079
299,0.0
330,0.0
2,1, 8,21, 0, 5,15.00,30.00,SummerDesignDay
9,19762539.525079
299,0.0
330,0.0
2,1, 8,21, 0, 5,30.00,45.00,SummerDesignDay
9,19762539.525079
299,0.0
330,0.0
2,1, 8,21, 0, 5,45.00,60.00,SummerDesignDay
9,19762539.525079
299,0.0
330,0.0
2,1, 8,21, 0, 6, 0.00,15.00,SummerDesignDay
9,19762539.525079
299,0.0
330,0.0
2,1, 8,21, 0, 6,15.00,30.00,SummerDesignDay
9,19762539.525079
299,0.0
330,0.0
2,1, 8,21, 0, 6,30.00,45.00,SummerDesignDay
9,19762539.525079
299,0.0
330,0.0
2,1, 8,21, 0, 6,45.00,60.00,SummerDesignDay
9,19762539.525079
299,0.0
330,0.0
2,1, 8,21, 0, 7, 0.00,15.00,SummerDesignDay
9,19762539.525079
299,0.0
330,45303076.7242353
2,1, 8,21, 0, 7,15.00,30.00,SummerDesignDay
9,19762539.525079
299,0.0
330,0.0
2,1, 8,21, 0, 7,30.00,45.00,SummerDesignDay
9,19762539.525079
299,0.0
330,31292277.3249411
2,1, 8,21, 0, 7,45.00,60.00,SummerDesignDay
9,19762539.525079
299,0.0
330,27753211.6162775
2,1, 8,21, 0, 8, 0.00,15.00,SummerDesignDay
9,19762539.525079
299,0.0
330,27422781.2231409
2,1, 8,21, 0, 8,15.00,30.00,SummerDesignDay
9,19762539.525079
299,0.0
330,29114080.6968628
2,1, 8,21, 0, 8,30.00,45.00,SummerDesignDay
9,19762539.525079
299,0.0
330,30405707.0524133
2,1, 8,21, 0, 8,45.00,60.00,SummerDesignDay
9,19762539.525079
299,0.0
330,31663621.7933852
2,1, 8,21, 0, 9, 0.00,15.00,SummerDesignDay
9,19762539.525079
299,0.0
330,32787157.7622683
2,1, 8,21, 0, 9,15.00,30.00,SummerDesignDay
9,19762539.525079
299,0.0
330,33781000.3099197
2,1, 8,21, 0, 9,30.00,45.00,SummerDesignDay
9,19762539.525079
299,0.0
330,34612329.9429524
2,1, 8,21, 0, 9,45.00,60.00,SummerDesignDay
9,19762539.525079
299,0.0
330,35409722.3430066
2,1, 8,21, 0,10, 0.00,15.00,SummerDesignDay
9,19762539.525079
299,0.0
330,36415208.9325818
2,1, 8,21, 0,10,15.00,30.00,SummerDesignDay
9,19762539.525079
299,0.0
330,37558520.0375126
2,1, 8,21, 0,10,30.00,45.00,SummerDesignDay
9,19762539.525079
299,0.0
330,38672526.6892889
2,1, 8,21, 0,10,45.00,60.00,SummerDesignDay
9,19762539.525079
299,0.0
330,39759565.3894204
2,1, 8,21, 0,11, 0.00,15.00,SummerDesignDay
9,19762539.525079
299,0.0
330,41053409.8387442
2,1, 8,21, 0,11,15.00,30.00,SummerDesignDay
9,19762539.525079
299,0.0
330,42562195.6540283
2,1, 8,21, 0,11,30.00,45.00,SummerDesignDay
9,19762539.525079
299,0.0
330,44174273.5083502
2,1, 8,21, 0,11,45.00,60.00,SummerDesignDay
9,19762539.525079
299,0.0
330,45861232.5195477
2,1, 8,21, 0,12, 0.00,15.00,SummerDesignDay
9,19762539.525079
299,0.0
330,47266506.2937175
2,1, 8,21, 0,12,15.00,30.00,SummerDesignDay
9,19762539.525079
299,0.0
330,48665213.4295408
2,1, 8,21, 0,12,30.00,45.00,SummerDesignDay
9,19762539.525079
299,0.0
330,50074559.4806958
2,1, 8,21, 0,12,45.00,60.00,SummerDesignDay
9,19762539.525079
299,0.0
330,51501137.8345145
2,1, 8,21, 0,13, 0.00,15.00,SummerDesignDay
9,19762539.525079
299,0.0
330,52791306.4947999
2,1, 8,21, 0,13,15.00,30.00,SummerDesignDay
9,19762539.525079
299,0.0
330,54084702.10901
2,1, 8,21, 0,13,30.00,45.00,SummerDesignDay
9,19762539.525079
299,0.0
330,55392089.6839522
2,1, 8,21, 0,13,45.00,60.00,SummerDesignDay
9,19762539.525079
299,0.0
330,56706902.9502105
2,1, 8,21, 0,14, 0.00,15.00,SummerDesignDay
9,19762539.525079
299,0.0
330,57783738.5320132
2,1, 8,21, 0,14,15.00,30.00,SummerDesignDay
9,19762539.525079
299,0.0
330,57773351.0090656
2,1, 8,21, 0,14,30.00,45.00,SummerDesignDay
9,19762539.525079
299,0.0
330,57608163.9497038
2,1, 8,21, 0,14,45.00,60.00,SummerDesignDay
9,19762539.525079
299,0.0
330,57623615.4306219
2,1, 8,21, 0,15, 0.00,15.00,SummerDesignDay
9,19762539.525079
299,0.0
330,57443879.5612239
2,1, 8,21, 0,15,15.00,30.00,SummerDesignDay
9,19762539.525079
299,0.0
330,57372701.2936657
2,1, 8,21, 0,15,30.00,45.00,SummerDesignDay
9,19762539.525079
299,0.0
330,57379597.5493825
2,1, 8,21, 0,15,45.00,60.00,SummerDesignDay
9,19762539.525079
299,0.0
330,57801296.6513446
2,1, 8,21, 0,16, 0.00,15.00,SummerDesignDay
9,19762539.525079
299,0.0
330,58039090.5066994
2,1, 8,21, 0,16,15.00,30.00,SummerDesignDay
9,19762539.525079
299,0.0
330,58314955.5256838
2,1, 8,21, 0,16,30.00,45.00,SummerDesignDay
9,19762539.525079
299,0.0
330,58588110.4619596
2,1, 8,21, 0,16,45.00,60.00,SummerDesignDay
9,19762539.525079
299,0.0
330,58828755.8293247
2,1, 8,21, 0,17, 0.00,15.00,SummerDesignDay
9,19762539.525079
299,0.0
330,58868684.1695308
2,1, 8,21, 0,17,15.00,30.00,SummerDesignDay
9,19762539.525079
299,0.0
330,58816284.0373214
2,1, 8,21, 0,17,30.00,45.00,SummerDesignDay
9,19762539.525079
299,0.0
330,58656407.1204861
2,1, 8,21, 0,17,45.00,60.00,SummerDesignDay
9,19762539.525079
299,0.0
330,58237626.1670245
2,1, 8,21, 0,18, 0.00,15.00,SummerDesignDay
9,19762539.525079
299,0.0
330,57609795.0460471
2,1, 8,21, 0,18,15.00,30.00,SummerDesignDay
9,19762539.525079
299,0.0
330,56861383.6967807
2,1, 8,21, 0,18,30.00,45.00,SummerDesignDay
9,19762539.525079
299,0.0
330,55987201.1686211
2,1, 8,21, 0,18,45.00,60.00,SummerDesignDay
9,19762539.525079
299,0.0
330,54977463.1659651
2,1, 8,21, 0,19, 0.00,15.00,SummerDesignDay
9,19762539.525079
299,0.0
330,53423365.2956138
2,1, 8,21, 0,19,15.00,30.00,SummerDesignDay
9,19762539.525079
299,0.0
330,51408049.2817926
2,1, 8,21, 0,19,30.00,45.00,SummerDesignDay
9,19762539.525079
299,0.0
330,49266617.4715623
2,1, 8,21, 0,19,45.00,60.00,SummerDesignDay
9,19762539.525079
299,0.0
330,46675752.7132062
2,1, 8,21, 0,20, 0.00,15.00,SummerDesignDay
9,19762539.525079
299,0.0
330,44382329.430718
2,1, 8,21, 0,20,15.00,30.00,SummerDesignDay
9,19762539.525079
299,0.0
330,42840383.4519025
2,1, 8,21, 0,20,30.00,45.00,SummerDesignDay
9,19762539.525079
299,0.0
330,41625016.2301588
2,1, 8,21, 0,20,45.00,60.00,SummerDesignDay
9,19762539.525079
299,0.0
330,40510369.6893631
2,1, 8,21, 0,21, 0.00,15.00,SummerDesignDay
9,19762539.525079
299,0.0
330,39567780.2671947
2,1, 8,21, 0,21,15.00,30.00,SummerDesignDay
9,19762539.525079
299,0.0
330,38654287.0231458
2,1, 8,21, 0,21,30.00,45.00,SummerDesignDay
9,19762539.525079
299,0.0
330,37756660.3489728
2,1, 8,21, 0,21,45.00,60.00,SummerDesignDay
9,19762539.525079
299,0.0
330,36865200.4850392
2,1, 8,21, 0,22, 0.00,15.00,SummerDesignDay
9,19762539.525079
299,0.0
330,35970313.6844335
2,1, 8,21, 0,22,15.00,30.00,SummerDesignDay
9,19762539.525079
299,0.0
330,35082413.6594784
2,1, 8,21, 0,22,30.00,45.00,SummerDesignDay
9,19762539.525079
299,0.0
330,34215245.032902
2,1, 8,21, 0,22,45.00,60.00,SummerDesignDay
9,19762539.525079
299,0.0
330,33375237.6318428
2,1, 8,21, 0,23, 0.00,15.00,SummerDesignDay
9,19762539.525079
299,0.0
330,0.0
2,1, 8,21, 0,23,15.00,30.00,SummerDesignDay
9,19762539.525079
299,0.0
330,0.0
2,1, 8,21, 0,23,30.00,45.00,SummerDesignDay
9,19762539.525079
299,0.0
330,0.0
2,1, 8,21, 0,23,45.00,60.00,SummerDesignDay
9,19762539.525079
299,0.0
330,0.0
2,1, 8,21, 0,24, 0.00,15.00,SummerDesignDay
9,19762539.525079
299,0.0
330,0.0
2,1, 8,21, 0,24,15.00,30.00,SummerDesignDay
9,19762539.525079
299,0.0
330,0.0
2,1, 8,21, 0,24,30.00,45.00,SummerDesignDay
9,19762539.525079
299,0.0
330,0.0
2,1, 8,21, 0,24,45.00,60.00,SummerDesignDay
9,19762539.525079
299,0.0
330,0.0
1,PIACENZA ANN CLG .4% CONDNS DP=>MDB,  44.92,   9.73,   1.00, 134.00
2,1, 8,21, 0, 1, 0.00,15.00,SummerDesignDay
9,19762539.525079
299,0.0
330,0.0
2,1, 8,21, 0, 1,15.00,30.00,SummerDesignDay
9,19762539.525079
299,0.0
330,0.0
2,1, 8,21, 0, 1,30.00,45.00,SummerDesignDay
9,19762539.525079
299,0.0
330,0.0
2,1, 8,21, 0, 1,45.00,60.00,SummerDesignDay
9,19762539.525079
299,0.0
330,0.0
2,1, 8,21, 0, 2, 0.00,15.00,SummerDesignDay
9,19762539.525079
299,0.0
330,0.0
2,1, 8,21, 0, 2,15.00,30.00,SummerDesignDay
9,19762539.525079
299,0.0
330,0.0
2,1, 8,21, 0, 2,30.00,45.00,SummerDesignDay
9,19762539.525079
299,0.0
330,0.0
2,1, 8,21, 0, 2,45.00,60.00,SummerDesignDay
9,19762539.525079
299,0.0
330,0.0
2,1, 8,21, 0, 3, 0.00,15.00,SummerDesignDay
9,19762539.525079
299,0.0
330,0.0
2,1, 8,21, 0, 3,15.00,30.00,SummerDesignDay
9,19762539.525079
299,0.0
330,0.0
2,1, 8,21, 0, 3,30.00,45.00,SummerDesignDay
9,19762539.525079
299,0.0
330,0.0
2,1, 8,21, 0, 3,45.00,60.00,SummerDesignDay
9,19762539.525079
299,0.0
330,0.0
2,1, 8,21, 0, 4, 0.00,15.00,SummerDesignDay
9,19762539.525079
299,0.0
330,0.0
2,1, 8,21, 0, 4,15.00,30.00,SummerDesignDay
9,19762539.525079
299,0.0
330,0.0
2,1, 8,21, 0, 4,30.00,45.00,SummerDesignDay
9,19762539.525079
299,0.0
330,0.0
2,1, 8,21, 0, 4,45.00,60.00,SummerDesignDay
9,19762539.525079
299,0.0
330,0.0
2,1, 8,21, 0, 5, 0.00,15.00,SummerDesignDay
9,19762539.525079
299,0.0
330,0.0
2,1, 8,21, 0, 5,15.00,30.00,SummerDesignDay
9,19762539.525079
299,0.0
330,0.0
2,1, 8,21, 0, 5,30.00,45.00,SummerDesignDay
9,19762539.525079
299,0.0
330,0.0
2,1, 8,21, 0, 5,45.00,60.00,SummerDesignDay
9,19762539.525079
299,0.0
330,0.0
2,1, 8,21, 0, 6, 0.00,15.00,SummerDesignDay
9,19762539.525079
299,0.0
330,0.0
2,1, 8,21, 0, 6,15.00,30.00,SummerDesignDay
9,19762539.525079
299,0.0
330,0.0
2,1, 8,21, 0, 6,30.00,45.00,SummerDesignDay
9,19762539.525079
299,0.0
330,0.0
2,1, 8,21, 0, 6,45.00,60.00,SummerDesignDay
9,19762539.525079
299,0.0
330,0.0
2,1, 8,21, 0, 7, 0.00,15.00,SummerDesignDay
9,19762539.525079
299,0.0
330,0.0
2,1, 8,21, 0, 7,15.00,30.00,SummerDesignDay
9,19762539.525079
299,0.0
330,0.0
2,1, 8,21, 0, 7,30.00,45.00,SummerDesignDay
9,19762539.525079
299,0.0
330,0.0
2,1, 8,21, 0, 7,45.00,60.00,SummerDesignDay
9,19762539.525079
299,0.0
330,0.0
2,1, 8,21, 0, 8, 0.00,15.00,SummerDesignDay
9,19762539.525079
299,0.0
330,0.0
2,1, 8,21, 0, 8,15.00,30.00,SummerDesignDay
9,19762539.525079
299,0.0
330,0.0
2,1, 8,21, 0, 8,30.00,45.00,SummerDesignDay
9,19762539.525079
299,0.0
330,0.0
2,1, 8,21, 0, 8,45.00,60.00,SummerDesignDay
9,19762539.525079
299,0.0
330,0.0
2,1, 8,21, 0, 9, 0.00,15.00,SummerDesignDay
9,19762539.525079
299,0.0
330,0.0
2,1, 8,21, 0, 9,15.00,30.00,SummerDesignDay
9,19762539.525079
299,0.0
330,0.0
2,1, 8,21, 0, 9,30.00,45.00,SummerDesignDay
9,19762539.525079
299,0.0
330,0.0
2,1, 8,21, 0, 9,45.00,60.00,SummerDesignDay
9,19762539.525079
299,0.0
330,9022428.30182206
2,1, 8,21, 0,10, 0.00,15.00,SummerDesignDay
9,19762539.525079
299,0.0
330,9427176.83479697
2,1, 8,21, 0,10,15.00,30.00,SummerDesignDay
9,19762539.525079
299,0.0
330,12916689.261791
2,1, 8,21, 0,10,30.00,45.00,SummerDesignDay
9,19762539.525079
299,0.0
330,15803152.9688979
2,1, 8,21, 0,10,45.00,60.00,SummerDesignDay
9,19762539.525079
299,0.0
330,18243431.9310394
2,1, 8,21, 0,11, 0.00,15.00,SummerDesignDay
9,19762539.525079
299,0.0
330,20923580.3120777
2,1, 8,21, 0,11,15.00,30.00,SummerDesignDay
9,19762539.525079
299,0.0
330,23786258.6465817
2,1, 8,21, 0,11,30.00,45.00,SummerDesignDay
9,19762539.525079
299,0.0
330,26568811.5968538
2,1, 8,21, 0,11,45.00,60.00,SummerDesignDay
9,19762539.525079
299,0.0
330,29146995.53386
2,1, 8,21, 0,12, 0.00,15.00,SummerDesignDay
9,19762539.525079
299,0.0
330,31110150.4350332
2,1, 8,21, 0,12,15.00,30.00,SummerDesignDay
9,19762539.525079
299,0.0
330,32931480.6506109
2,1, 8,21, 0,12,30.00,45.00,SummerDesignDay
9,19762539.525079
299,0.0
330,34600748.735915
2,1, 8,21, 0,12,45.00,60.00,SummerDesignDay
9,19762539.525079
299,0.0
330,36131980.9163638
2,1, 8,21, 0,13, 0.00,15.00,SummerDesignDay
9,19762539.525079
299,0.0
330,37375204.6608756
2,1, 8,21, 0,13,15.00,30.00,SummerDesignDay
9,19762539.525079
299,0.0
330,38500799.190856
2,1, 8,21, 0,13,30.00,45.00,SummerDesignDay
9,19762539.525079
299,0.0
330,39539378.2971673
2,1, 8,21, 0,13,45.00,60.00,SummerDesignDay
9,19762539.525079
299,0.0
330,40489718.5255079
2,1, 8,21, 0,14, 0.00,15.00,SummerDesignDay
9,19762539.525079
299,0.0
330,40985449.6233257
2,1, 8,21, 0,14,15.00,30.00,SummerDesignDay
9,19762539.525079
299,0.0
330,41550119.5329478
2,1, 8,21, 0,14,30.00,45.00,SummerDesignDay
9,19762539.525079
299,0.0
330,42060575.4941954
2,1, 8,21, 0,14,45.00,60.00,SummerDesignDay
9,19762539.525079
299,0.0
330,42568962.2240979
2,1, 8,21, 0,15, 0.00,15.00,SummerDesignDay
9,19762539.525079
299,0.0
330,42637613.5722266
2,1, 8,21, 0,15,15.00,30.00,SummerDesignDay
9,19762539.525079
299,0.0
330,42669695.251704
2,1, 8,21, 0,15,30.00,45.00,SummerDesignDay
9,19762539.525079
299,0.0
330,42690742.9613768
2,1, 8,21, 0,15,45.00,60.00,SummerDesignDay
9,19762539.525079
299,0.0
330,43121789.343081
2,1, 8,21, 0,16, 0.00,15.00,SummerDesignDay
9,19762539.525079
299,0.0
330,43241686.9928177
2,1, 8,21, 0,16,15.00,30.00,SummerDesignDay
9,19762539.525079
299,0.0
330,43526797.6009071
2,1, 8,21, 0,16,30.00,45.00,SummerDesignDay
9,19762539.525079
299,0.0
330,43816264.8080238
2,1, 8,21, 0,16,45.00,60.00,SummerDesignDay
9,19762539.525079
299,0.0
330,44082306.2362181
2,1, 8,21, 0,17, 0.00,15.00,SummerDesignDay
9,19762539.525079
299,0.0
330,44134412.1646477
2,1, 8,21, 0,17,15.00,30.00,SummerDesignDay
9,19762539.525079
299,0.0
330,44095012.53547
2,1, 8,21, 0,17,30.00,45.00,SummerDesignDay
9,19762539.525079
299,0.0
330,43953606.0627414
2,1, 8,21, 0,17,45.00,60.00,SummerDesignDay
9,19762539.525079
299,0.0
330,43550092.5549397
2,1, 8,21, 0,18, 0.00,15.00,SummerDesignDay
9,19762539.525079
299,0.0
330,42934834.798377
2,1, 8,21, 0,18,15.00,30.00,SummerDesignDay
9,19762539.525079
299,0.0
330,42202260.4466707
2,1, 8,21, 0,18,30.00,45.00,SummerDesignDay
9,19762539.525079
299,0.0
330,41334113.8804625
2,1, 8,21, 0,18,45.00,60.00,SummerDesignDay
9,19762539.525079
299,0.0
330,40352322.415297
2,1, 8,21, 0,19, 0.00,15.00,SummerDesignDay
9,19762539.525079
299,0.0
330,38810865.7966776
2,1, 8,21, 0,19,15.00,30.00,SummerDesignDay
9,19762539.525079
299,0.0
330,36793440.319468
2,1, 8,21, 0,19,30.00,45.00,SummerDesignDay
9,19762539.525079
299,0.0
330,34637408.6111485
2,1, 8,21, 0,19,45.00,60.00,SummerDesignDay
9,19762539.525079
299,0.0
330,32000863.3866433
2,1, 8,21, 0,20, 0.00,15.00,SummerDesignDay
9,19762539.525079
299,0.0
330,29683884.0738238
2,1, 8,21, 0,20,15.00,30.00,SummerDesignDay
9,19762539.525079
299,0.0
330,27895622.2766122
2,1, 8,21, 0,20,30.00,45.00,SummerDesignDay
9,19762539.525079
299,0.0
330,26340430.2796986
2,1, 8,21, 0,20,45.00,60.00,SummerDesignDay
9,19762539.525079
299,0.0
330,24762121.0462838
2,1, 8,21, 0,21, 0.00,15.00,SummerDesignDay
9,19762539.525079
299,0.0
330,23329482.4655126
2,1, 8,21, 0,21,15.00,30.00,SummerDesignDay
9,19762539.525079
299,0.0
330,21889135.7205573
2,1, 8,21, 0,21,30.00,45.00,SummerDesignDay
9,19762539.525079
299,0.0
330,20435413.8474762
2,1, 8,21, 0,21,45.00,60.00,SummerDesignDay
9,19762539.525079
299,0.0
330,18971284.2477205
2,1, 8,21, 0,22, 0.00,15.00,SummerDesignDay
9,19762539.525079
299,0.0
330,17504870.0778981
2,1, 8,21, 0,22,15.00,30.00,SummerDesignDay
9,19762539.525079
299,0.0
330,16019890.387968
2,1, 8,21, 0,22,30.00,45.00,SummerDesignDay
9,19762539.525079
299,0.0
330,14373357.3903831
2,1, 8,21, 0,22,45.00,60.00,SummerDesignDay
9,19762539.525079
299,0.0
330,12702596.4080739
2,1, 8,21, 0,23, 0.00,15.00,SummerDesignDay
9,19762539.525079
299,0.0
330,0.0
2,1, 8,21, 0,23,15.00,30.00,SummerDesignDay
9,19762539.525079
299,0.0
330,0.0
2,1, 8,21, 0,23,30.00,45.00,SummerDesignDay
9,19762539.525079
299,0.0
330,0.0
2,1, 8,21, 0,23,45.00,60.00,SummerDesignDay
9,19762539.525079
299,0.0
330,0.0
2,1, 8,21, 0,24, 0.00,15.00,SummerDesignDay
9,19762539.525079
299,0.0
330,0.0
2,1, 8,21, 0,24,15.00,30.00,SummerDesignDay
9,19762539.525079
299,0.0
330,0.0
2,1, 8,21, 0,24,30.00,45.00,SummerDesignDay
9,19762539.525079
299,0.0
330,0.0
2,1, 8,21, 0,24,45.00,60.00,SummerDesignDay
9,19762539.525079
299,0.0
330,0.0
1,PIACENZA ANN CLG .4% CONDNS ENTH=>MDB,  44.92,   9.73,   1.00, 134.00
2,1, 8,21, 0, 1, 0.00,15.00,SummerDesignDay
9,19762539.525079
299,0.0
330,0.0
2,1, 8,21, 0, 1,15.00,30.00,SummerDesignDay
9,19762539.525079
299,0.0
330,0.0
2,1, 8,21, 0, 1,30.00,45.00,SummerDesignDay
9,19762539.525079
299,0.0
330,0.0
2,1, 8,21, 0, 1,45.00,60.00,SummerDesignDay
9,19762539.525079
299,0.0
330,0.0
2,1, 8,21, 0, 2, 0.00,15.00,SummerDesignDay
9,19762539.525079
299,0.0
330,0.0
2,1, 8,21, 0, 2,15.00,30.00,SummerDesignDay
9,19762539.525079
299,0.0
330,0.0
2,1, 8,21, 0, 2,30.00,45.00,SummerDesignDay
9,19762539.525079
299,0.0
330,0.0
2,1, 8,21, 0, 2,45.00,60.00,SummerDesignDay
9,19762539.525079
299,0.0
330,0.0
2,1, 8,21, 0, 3, 0.00,15.00,SummerDesignDay
9,19762539.525079
299,0.0
330,0.0
2,1, 8,21, 0, 3,15.00,30.00,SummerDesignDay
9,19762539.525079
299,0.0
330,0.0
2,1, 8,21, 0, 3,30.00,45.00,SummerDesignDay
9,19762539.525079
299,0.0
330,0.0
2,1, 8,21, 0, 3,45.00,60.00,SummerDesignDay
9,19762539.525079
299,0.0
330,0.0
2,1, 8,21, 0, 4, 0.00,15.00,SummerDesignDay
9,19762539.525079
299,0.0
330,0.0
2,1, 8,21, 0, 4,15.00,30.00,SummerDesignDay
9,19762539.525079
299,0.0
330,0.0
2,1, 8,21, 0, 4,30.00,45.00,SummerDesignDay
9,19762539.525079
299,0.0
330,0.0
2,1, 8,21, 0, 4,45.00,60.00,SummerDesignDay
9,19762539.525079
299,0.0
330,0.0
2,1, 8,21, 0, 5, 0.00,15.00,SummerDesignDay
9,19762539.525079
299,0.0
330,0.0
2,1, 8,21, 0, 5,15.00,30.00,SummerDesignDay
9,19762539.525079
299,0.0
330,0.0
2,1, 8,21, 0, 5,30.00,45.00,SummerDesignDay
9,19762539.525079
299,0.0
330,0.0
2,1, 8,21, 0, 5,45.00,60.00,SummerDesignDay
9,19762539.525079
299,0.0
330,0.0
2,1, 8,21, 0, 6, 0.00,15.00,SummerDesignDay
9,19762539.525079
299,0.0
330,0.0
2,1, 8,21, 0, 6,15.00,30.00,SummerDesignDay
9,19762539.525079
299,0.0
330,0.0
2,1, 8,21, 0, 6,30.00,45.00,SummerDesignDay
9,19762539.525079
299,0.0
330,0.0
2,1, 8,21, 0, 6,45.00,60.00,SummerDesignDay
9,19762539.525079
299,0.0
330,0.0
2,1, 8,21, 0, 7, 0.00,15.00,SummerDesignDay
9,19762539.525079
299,0.0
330,0.0
2,1, 8,21, 0, 7,15.00,30.00,SummerDesignDay
9,19762539.525079
299,0.0
330,0.0
2,1, 8,21, 0, 7,30.00,45.00,SummerDesignDay
9,19762539.525079
299,0.0
330,9441184.41148242
2,1, 8,21, 0, 7,45.00,60.00,SummerDesignDay
9,19762539.525079
299,0.0
330,9112806.68983722
2,1, 8,21, 0, 8, 0.00,15.00,SummerDesignDay
9,19762539.525079
299,0.0
330,12881447.540551
2,1, 8,21, 0, 8,15.00,30.00,SummerDesignDay
9,19762539.525079
299,0.0
330,16600374.1301373
2,1, 8,21, 0, 8,30.00,45.00,SummerDesignDay
9,19762539.525079
299,0.0
330,19687166.2328081
2,1, 8,21, 0, 8,45.00,60.00,SummerDesignDay
9,19762539.525079
299,0.0
330,22687020.6344926
2,1, 8,21, 0, 9, 0.00,15.00,SummerDesignDay
9,19762539.525079
299,0.0
330,25492878.3930574
2,1, 8,21, 0, 9,15.00,30.00,SummerDesignDay
9,19762539.525079
299,0.0
330,27978692.9150999
2,1, 8,21, 0, 9,30.00,45.00,SummerDesignDay
9,19762539.525079
299,0.0
330,30214828.8829128
2,1, 8,21, 0, 9,45.00,60.00,SummerDesignDay
9,19762539.525079
299,0.0
330,32264704.8950331
2,1, 8,21, 0,10, 0.00,15.00,SummerDesignDay
9,19762539.525079
299,0.0
330,33995925.6887465
2,1, 8,21, 0,10,15.00,30.00,SummerDesignDay
9,19762539.525079
299,0.0
330,35558644.3036501
2,1, 8,21, 0,10,30.00,45.00,SummerDesignDay
9,19762539.525079
299,0.0
330,37104559.7031044
2,1, 8,21, 0,10,45.00,60.00,SummerDesignDay
9,19762539.525079
299,0.0
330,38641676.769296
2,1, 8,21, 0,11, 0.00,15.00,SummerDesignDay
9,19762539.525079
299,0.0
330,40577513.9857962
2,1, 8,21, 0,11,15.00,30.00,SummerDesignDay
9,19762539.525079
299,0.0
330,42847531.3175654
2,1, 8,21, 0,11,30.00,45.00,SummerDesignDay
9,19762539.525079
299,0.0
330,45235123.295805
2,1, 8,21, 0,11,45.00,60.00,SummerDesignDay
9,19762539.525079
299,0.0
330,47658627.788681
2,1, 8,21, 0,12, 0.00,15.00,SummerDesignDay
9,19762539.525079
299,0.0
330,49598345.8416506
2,1, 8,21, 0,12,15.00,30.00,SummerDesignDay
9,19762539.525079
299,0.0
330,51338444.1412646
2,1, 8,21, 0,12,30.00,45.00,SummerDesignDay
9,19762539.525079
299,0.0
330,53126241.068835
2,1, 8,21, 0,12,45.00,60.00,SummerDesignDay
9,19762539.525079
299,0.0
330,54830960.4456257
2,1, 8,21, 0,13, 0.00,15.00,SummerDesignDay
9,19762539.525079
299,0.0
330,56452431.8671082
2,1, 8,21, 0,13,15.00,30.00,SummerDesignDay
9,19762539.525079
299,0.0
330,58196128.0415041
2,1, 8,21, 0,13,30.00,45.00,SummerDesignDay
9,19762539.525079
299,0.0
330,59967608.2998558
2,1, 8,21, 0,13,45.00,60.00,SummerDesignDay
9,19762539.525079
299,0.0
330,61747965.6032091
2,1, 8,21, 0,14, 0.00,15.00,SummerDesignDay
9,19762539.525079
299,0.0
330,63207041.4527494
2,1, 8,21, 0,14,15.00,30.00,SummerDesignDay
9,19762539.525079
299,0.0
330,64599309.7017264
2,1, 8,21, 0,14,30.00,45.00,SummerDesignDay
9,19762539.525079
299,0.0
330,65899145.1696478
2,1, 8,21, 0,14,45.00,60.00,SummerDesignDay
9,19762539.525079
299,0.0
330,67162880.9255428
2,1, 8,21, 0,15, 0.00,15.00,SummerDesignDay
9,19762539.525079
299,0.0
330,67845966.4516433
2,1, 8,21, 0,15,15.00,30.00,SummerDesignDay
9,19762539.525079
299,0.0
330,68412160.1481884
2,1, 8,21, 0,15,30.00,45.00,SummerDesignDay
9,19762539.525079
299,0.0
330,68871453.8497679
2,1, 8,21, 0,15,45.00,60.00,SummerDesignDay
9,19762539.525079
299,0.0
330,69773291.5237735
2,1, 8,21, 0,16, 0.00,15.00,SummerDesignDay
9,19762539.525079
299,0.0
330,70269785.4064473
2,1, 8,21, 0,16,15.00,30.00,SummerDesignDay
9,19762539.525079
299,0.0
330,70668339.3583959
2,1, 8,21, 0,16,30.00,45.00,SummerDesignDay
9,19762539.525079
299,0.0
330,70911979.7357271
2,1, 8,21, 0,16,45.00,60.00,SummerDesignDay
9,19762539.525079
299,0.0
330,70984306.634366
2,1, 8,21, 0,17, 0.00,15.00,SummerDesignDay
9,19762539.525079
299,0.0
330,70679779.2438361
2,1, 8,21, 0,17,15.00,30.00,SummerDesignDay
9,19762539.525079
299,0.0
330,70172919.2835559
2,1, 8,21, 0,17,30.00,45.00,SummerDesignDay
9,19762539.525079
299,0.0
330,69464032.6549617
2,1, 8,21, 0,17,45.00,60.00,SummerDesignDay
9,19762539.525079
299,0.0
330,68372693.053031
2,1, 8,21, 0,18, 0.00,15.00,SummerDesignDay
9,19762539.525079
299,0.0
330,66997503.3619192
2,1, 8,21, 0,18,15.00,30.00,SummerDesignDay
9,19762539.525079
299,0.0
330,65454563.1892661
2,1, 8,21, 0,18,30.00,45.00,SummerDesignDay
9,19762539.525079
299,0.0
330,63749437.9893508
2,1, 8,21, 0,18,45.00,60.00,SummerDesignDay
9,19762539.525079
299,0.0
330,61884681.3396525
2,1, 8,21, 0,19, 0.00,15.00,SummerDesignDay
9,19762539.525079
299,0.0
330,59333885.7009818
2,1, 8,21, 0,19,15.00,30.00,SummerDesignDay
9,19762539.525079
299,0.0
330,56209767.3286626
2,1, 8,21, 0,19,30.00,45.00,SummerDesignDay
9,19762539.525079
299,0.0
330,52964885.7468066
2,1, 8,21, 0,19,45.00,60.00,SummerDesignDay
9,19762539.525079
299,0.0
330,49256272.4034423
2,1, 8,21, 0,20, 0.00,15.00,SummerDesignDay
9,19762539.525079
299,0.0
330,46041527.7435727
2,1, 8,21, 0,20,15.00,30.00,SummerDesignDay
9,19762539.525079
299,0.0
330,43830144.1441339
2,1, 8,21, 0,20,30.00,45.00,SummerDesignDay
9,19762539.525079
299,0.0
330,42061856.9127288
2,1, 8,21, 0,20,45.00,60.00,SummerDesignDay
9,19762539.525079
299,0.0
330,40378125.5369474
2,1, 8,21, 0,21, 0.00,15.00,SummerDesignDay
9,19762539.525079
299,0.0
330,38904373.1042546
2,1, 8,21, 0,21,15.00,30.00,SummerDesignDay
9,19762539.525079
299,0.0
330,37486959.9466589
2,1, 8,21, 0,21,30.00,45.00,SummerDesignDay
9,19762539.525079
299,0.0
330,36128169.9595662
2,1, 8,21, 0,21,45.00,60.00,SummerDesignDay
9,19762539.525079
299,0.0
330,34843248.1497772
2,1, 8,21, 0,22, 0.00,15.00,SummerDesignDay
9,19762539.525079
299,0.0
330,33456683.5298984
2,1, 8,21, 0,22,15.00,30.00,SummerDesignDay
9,19762539.525079
299,0.0
330,31976167.4088731
2,1, 8,21, 0,22,30.00,45.00,SummerDesignDay
9,19762539.525079
299,0.0
330,30469602.762729
2,1, 8,21, 0,22,45.00,60.00,SummerDesignDay
9,19762539.525079
299,0.0
330,28946421.1076895
2,1, 8,21, 0,23, 0.00,15.00,SummerDesignDay
9,19762539.525079
299,0.0
330,0.0
2,1, 8,21, 0,23,15.00,30.00,SummerDesignDay
9,19762539.525079
299,0.0
330,0.0
2,1, 8,21, 0,23,30.00,45.00,SummerDesignDay
9,19762539.525079
299,0.0
330,0.0
2,1, 8,21, 0,23,45.00,60.00,SummerDesignDay
9,19762539.525079
299,0.0
330,0.0
2,1, 8,21, 0,24, 0.00,15.00,SummerDesignDay
9,19762539.525079
299,0.0
330,0.0
2,1, 8,21, 0,24,15.00,30.00,SummerDesignDay
9,19762539.525079
299,0.0
330,0.0
2,1, 8,21, 0,24,30.00,45.00,SummerDesignDay
9,19762539.525079
299,0.0
330,0.0
2,1, 8,21, 0,24,45.00,60.00,SummerDesignDay
9,19762539.525079
299,0.0
330,0.0
1,PIACENZA ANN CLG .4% CONDNS WB=>MDB,  44.92,   9.73,   1.00, 134.00
2,1, 8,21, 0, 1, 0.00,15.00,SummerDesignDay
9,19762539.525079
299,0.0
330,0.0
2,1, 8,21, 0, 1,15.00,30.00,SummerDesignDay
9,19762539.525079
299,0.0
330,0.0
2,1, 8,21, 0, 1,30.00,45.00,SummerDesignDay
9,19762539.525079
299,0.0
330,0.0
2,1, 8,21, 0, 1,45.00,60.00,SummerDesignDay
9,19762539.525079
299,0.0
330,0.0
2,1, 8,21, 0, 2, 0.00,15.00,SummerDesignDay
9,19762539.525079
299,0.0
330,0.0
2,1, 8,21, 0, 2,15.00,30.00,SummerDesignDay
9,19762539.525079
299,0.0
330,0.0
2,1, 8,21, 0, 2,30.00,45.00,SummerDesignDay
9,19762539.525079
299,0.0
330,0.0
2,1, 8,21, 0, 2,45.00,60.00,SummerDesignDay
9,19762539.525079
299,0.0
330,0.0
2,1, 8,21, 0, 3, 0.00,15.00,SummerDesignDay
9,19762539.525079
299,0.0
330,0.0
2,1, 8,21, 0, 3,15.00,30.00,SummerDesignDay
9,19762539.525079
299,0.0
330,0.0
2,1, 8,21, 0, 3,30.00,45.00,SummerDesignDay
9,19762539.525079
299,0.0
330,0.0
2,1, 8,21, 0, 3,45.00,60.00,SummerDesignDay
9,19762539.525079
299,0.0
330,0.0
2,1, 8,21, 0, 4, 0.00,15.00,SummerDesignDay
9,19762539.525079
299,0.0
330,0.0
2,1, 8,21, 0, 4,15.00,30.00,SummerDesignDay
9,19762539.525079
299,0.0
330,0.0
2,1, 8,21, 0, 4,30.00,45.00,SummerDesignDay
9,19762539.525079
299,0.0
330,0.0
2,1, 8,21, 0, 4,45.00,60.00,SummerDesignDay
9,19762539.525079
299,0.0
330,0.0
2,1, 8,21, 0, 5, 0.00,15.00,SummerDesignDay
9,19762539.525079
299,0.0
330,0.0
2,1, 8,21, 0, 5,15.00,30.00,SummerDesignDay
9,19762539.525079
299,0.0
330,0.0
2,1, 8,21, 0, 5,30.00,45.00,SummerDesignDay
9,19762539.525079
299,0.0
330,0.0
2,1, 8,21, 0, 5,45.00,60.00,SummerDesignDay
9,19762539.525079
299,0.0
330,0.0
2,1, 8,21, 0, 6, 0.00,15.00,SummerDesignDay
9,19762539.525079
299,0.0
330,0.0
2,1, 8,21, 0, 6,15.00,30.00,SummerDesignDay
9,19762539.525079
299,0.0
330,0.0
2,1, 8,21, 0, 6,30.00,45.00,SummerDesignDay
9,19762539.525079
299,0.0
330,0.0
2,1, 8,21, 0, 6,45.00,60.00,SummerDesignDay
9,19762539.525079
299,0.0
330,0.0
2,1, 8,21, 0, 7, 0.00,15.00,SummerDesignDay
9,19762539.525079
299,0.0
330,0.0
2,1, 8,21, 0, 7,15.00,30.00,SummerDesignDay
9,19762539.525079
299,0.0
330,0.0
2,1, 8,21, 0, 7,30.00,45.00,SummerDesignDay
9,19762539.525079
299,0.0
330,1792210.47025105
2,1, 8,21, 0, 7,45.00,60.00,SummerDesignDay
9,19762539.525079
299,0.0
330,9886366.02072756
2,1, 8,21, 0, 8, 0.00,15.00,SummerDesignDay
9,19762539.525079
299,0.0
330,9594657.82643245
2,1, 8,21, 0, 8,15.00,30.00,SummerDesignDay
9,19762539.525079
299,0.0
330,14477680.0363
2,1, 8,21, 0, 8,30.00,45.00,SummerDesignDay
9,19762539.525079
299,0.0
330,17715118.4732078
2,1, 8,21, 0, 8,45.00,60.00,SummerDesignDay
9,19762539.525079
299,0.0
330,20862399.3978674
2,1, 8,21, 0, 9, 0.00,15.00,SummerDesignDay
9,19762539.525079
299,0.0
330,23809741.4474712
2,1, 8,21, 0, 9,15.00,30.00,SummerDesignDay
9,19762539.525079
299,0.0
330,26426329.6471589
2,1, 8,21, 0, 9,30.00,45.00,SummerDesignDay
9,19762539.525079
299,0.0
330,28760929.6223841
2,1, 8,21, 0, 9,45.00,60.00,SummerDesignDay
9,19762539.525079
299,0.0
330,30814674.4641629
2,1, 8,21, 0,10, 0.00,15.00,SummerDesignDay
9,19762539.525079
299,0.0
330,32427726.0147573
2,1, 8,21, 0,10,15.00,30.00,SummerDesignDay
9,19762539.525079
299,0.0
330,33760949.413703
2,1, 8,21, 0,10,30.00,45.00,SummerDesignDay
9,19762539.525079
299,0.0
330,34858638.5345619
2,1, 8,21, 0,10,45.00,60.00,SummerDesignDay
9,19762539.525079
299,0.0
330,35858228.0966756
2,1, 8,21, 0,11, 0.00,15.00,SummerDesignDay
9,19762539.525079
299,0.0
330,37097357.6431455
2,1, 8,21, 0,11,15.00,30.00,SummerDesignDay
9,19762539.525079
299,0.0
330,38568853.1127386
2,1, 8,21, 0,11,30.00,45.00,SummerDesignDay
9,19762539.525079
299,0.0
330,40070109.2225939
2,1, 8,21, 0,11,45.00,60.00,SummerDesignDay
9,19762539.525079
299,0.0
330,41533709.4935293
2,1, 8,21, 0,12, 0.00,15.00,SummerDesignDay
9,19762539.525079
299,0.0
330,42528983.9237686
2,1, 8,21, 0,12,15.00,30.00,SummerDesignDay
9,19762539.525079
299,0.0
330,43358786.9585873
2,1, 8,21, 0,12,30.00,45.00,SummerDesignDay
9,19762539.525079
299,0.0
330,44101043.2114516
2,1, 8,21, 0,12,45.00,60.00,SummerDesignDay
9,19762539.525079
299,0.0
330,44889345.9430597
2,1, 8,21, 0,13, 0.00,15.00,SummerDesignDay
9,19762539.525079
299,0.0
330,45471156.421799
2,1, 8,21, 0,13,15.00,30.00,SummerDesignDay
9,19762539.525079
299,0.0
330,46156359.7049828
2,1, 8,21, 0,13,30.00,45.00,SummerDesignDay
9,19762539.525079